<?xml version="1.0"?>
<VTKFile type="UnstructuredGrid"  version="0.1"  >
<UnstructuredGrid>
<Piece  NumberOfPoints="201" NumberOfCells="657">
<Points>
<DataArray  type="Float64"  NumberOfComponents="3"  format="ascii">-0.03207701191466746 -0.4335692640654357 821.1915204273788  -0.2266896976059963 -0.3883094346846606 -822.263876691447  1906.239691067913 0.3320488977100459 -780.4752475801421  3625.515765226824 0.389742632642159 -663.7088989562285  4984.725894769167 -0.2701429902977929 -491.6257073009602  5849.085287472375 -0.09790716822062816 -261.8845051097732  6147.127439987935 -0.679614892594506 1.079588077060388  5850.044722925201 -1.166497753834864 261.3545896234168  4984.349865220232 -0.5218139378602475 490.597032195134  3624.881165624631 0.09368112401324946 663.5093815484865  1905.996437378818 0.5209225826193755 779.2167617350631  2414.287762909664 -1794.558960882976 -714.1954607845965  2399.820572770708 1393.401415064727 732.9227383907991  5848.432571911007 -1591.37412114457 -128.134008335217  4225.581784678564 -1741.534946004381 550.8151262857975  5328.477334188958 1612.668181023643 354.7820423512165  5306.940904031998 1610.026433107156 -360.2864057761766  2695.691582579934 1605.636110041901 -703.8011507300457  928.9819157795555 -1605.616361593287 781.1133754444256  4197.180480169995 -1604.827758104019 -561.8754790900543  2921.604833710357 -3149.304664549261 -579.7929726020539  4338.169582552555 -3084.0081051814 -405.9757858323084  2972.43008092815 -4405.452334403377 -393.2167240451238  4180.139341329483 -4124.555205835488 -197.6042397176565  2624.205653672384 -5236.6711485469 -166.6335770740125  3733.727334469464 -4694.274445425497 42.96454879809862  1960.681825963491 -5593.040896575919 75.50345506347973  2846.933571103646 -4861.56358728515 289.0760264476911  1027.377499595944 -5449.859820373435 303.9366473738294  1826.413618313226 -4454.999255413504 494.7378524056891  -71.11063520744348 -4785.123999924651 494.556961562068  4369.90549710742 -3820.923768463771 241.5498393813759  4198.417604404732 1604.362254531992 561.5336084266793  4250.5816210874 3103.570483427082 420.1703017828328  5134.791853525437 2965.81404817688 193.6901166989055  683.0419440452748 -3558.939837505901 649.7100790826172  2503.920212822215 -3121.220894972555 614.4663857939961  2921.017430837035 2969.103830965035 598.4751338215153  2812.355582934108 4338.975904040222 425.4387814653568  5862.884628287825 -1553.866018862531 127.7557481343983  5170.035436289909 -3208.751056903065 16.01091309182199  5343.131327094529 -1614.801165394365 -350.467519274901  929.8109301527887 1605.820350169881 -780.3288502901446  4156.399427905706 1564.767672832868 -569.8791215889801  4215.431381086959 3085.539785569789 -428.7018556724799  1274.719881977257 -5289.231115027233 -342.4052088592816  -893.5660353118325 -5516.366433791753 288.2420456839175  1247.184616831614 -3231.150973970236 -669.9092891286763  5103.361447353271 3005.308348525089 -199.0992323630182  3814.620180812908 4338.998342640018 -241.9943063693823  2714.336596226332 4230.873531968934 -456.1807275531924  2140.195548703035 5263.519198019312 -257.6224624382614  947.2763873758495 4947.604586046021 -444.3637896655168  276.3889133298933 5696.473416935194 -234.8988986464342  -969.7370712312708 5091.546372099965 -410.5003502540312  -1596.838878952342 5587.831023236999 -180.0480263695189  -2820.190729214733 4781.387125652439 -318.0407953030796  -307.7515209689461 5917.833682728236 16.02347651738319  -1967.981910795085 -4598.650790322293 456.4735583203519  -2712.76740130007 -5073.422119814316 232.4279665025864  -3306.817543485262 4961.523351954545 -87.93064632627292  -4369.164105262128 3885.070354704592 -221.154886438084  -4647.474173181905 3869.260451061074 19.80901400461927  -5460.541621686275 2555.022274239789 -137.0876503281702  -5533.586639189724 2425.02570810715 126.9185377573596  -4854.795937954566 2425.135699768515 -386.738743859277  -4476.984455455388 3587.478911039663 276.5174596991206  -5776.060590606366 1060.400738217641 -248.5804662863493  -5116.652745594242 1996.043995386864 372.3608113596142  -4925.626485345863 683.5316777992033 -491.9352844027378  -5524.626796014653 -771.190301997638 -354.278391060287  -3811.963358554045 3013.046782571256 497.8493238734936  -852.0894120433898 -2466.648648906847 738.0373022559229  -3711.549048931621 -3931.731821167173 374.8757606234623  -4428.765261900383 -1045.784758598729 -555.5489302859121  -4779.020222202512 -2450.182418770777 -400.1065128079917  -5909.042368840621 673.6205801190815 214.0487237860135  -2060.046905829613 3965.40192913677 -551.8185480485126  -4218.165257409039 1287.783663634111 576.4947398298798  1326.581353622828 4008.080799089254 583.696372542587  -5688.340634902868 -2003.260650687757 -145.8421160647019  -3589.537158134006 418.7142132225517 -664.7098517896835  -2796.592118345343 2295.339213805414 659.3270031306432  -3447.885895582537 -2639.147814810065 -579.3857362644551  -3607.92415813741 -3926.088982992647 -392.9007609677224  -3039.54112453101 4422.35946543119 377.2208623464273  -1547.332605072154 -5720.368332167137 55.60598021593863  -2945.663760906445 385.9681170543385 718.00436158399  -4351.561730789003 -558.1795783410032 578.7171753445003  -2083.547659034565 -3940.68563219014 -551.4020092961658  -2087.780730475656 -5014.949865579855 -352.9528052745036  -1797.445728893408 -2497.197179053614 -704.3560250860155  3116.996274309342 5105.035863891721 -25.04243165307988  -4193.378656263468 -4209.892545898887 150.4701058676791  -5049.02430630974 -2843.711434952629 264.1615955390881  1102.612721462468 5155.347758384554 389.4746169499824  -398.8631047791721 4653.791142348496 512.0632436663102  -138.3518400367341 3507.889307515031 663.5415699967219  -1671.08272090014 1483.559132258532 761.8859245459493  -2785.527846484045 -3219.854728073254 585.2545302137105  1453.973325362193 3920.097404949062 -588.8063784447289  -3447.634341191845 -4741.328819809718 -185.7535091614732  -456.6408358106997 3007.434439906642 -705.7796233878004  -1012.893426545434 1289.855469191377 -790.5471468003591  -684.6286717195693 5545.847991900986 287.9601648650041  -1303.681405311514 -914.1208866408276 791.8750754965766  -445.7637451888079 -4872.356857941997 -473.3842990763616  -2815.212451359926 -1466.031147549919 703.4029901833011  -4337.804508116116 -2359.959405602367 486.6891283741878  -5391.456366939836 -1132.277708431766 376.0821575991164  -5887.476361799689 -1466.59035775471 121.473614030156  -6121.074716508197 -190.4648570503393 -74.04049221890124  -2368.736233469981 2555.492327129157 -670.4572945845201  -3591.636243089011 2824.920927567684 -545.850407683331  -525.0051599032868 -5586.155958329966 -278.0738320473385  -209.622796907379 4393.235035868583 -557.3068771815908  2451.934841603971 5213.463427113814 223.2080081915445  5306.735346390909 -1542.502488000954 366.6051495075288  308.413737019325 -1685.040751714663 -785.1454948078239  972.4045772274593 -5782.889373316641 -131.7578320330113  -1876.034349098353 3799.935293814297 582.8739538492795  5875.340157245905 1491.517229203101 -128.9325344965649  3926.772477920203 4298.809482039536 221.2260585061915  4629.696880758096 3892.590486274235 -10.17941444191455  -4695.756349568885 -3525.619970620035 -214.2048387068997  -2035.166441902428 5574.360550877984 68.86173612630067  -3414.099257889261 4805.852271628513 158.2358843992839  -334.6561277959097 -3637.691350405783 -647.1812407084456  -1438.333105315947 -663.6063264124983 -792.7893314816764  -3029.599736563054 -1064.944657198529 -698.4095500191844  1419.529106671355 5761.318043205754 -45.07121949039802  165.3392597125603 -5889.794354601013 95.08650016693548  3400.89703652068 -3755.409620389291 454.7019802167415  5885.387001491837 1510.886257854258 114.1110937629107  2696.803742192302 -1593.83189024973 704.3947681944761  -5200.246257501711 -3160.41306765444 20.51947842259993  -1103.926209457278 -3924.824269364261 602.2077982519464  3003.864944526375 2878.781790807993 -597.2891613030299  -5276.511351281387 473.9475685929172 426.5655279416926  1383.4172848148 -4428.465669263906 -522.1333167892097  1511.414483298435 2858.186274455618 691.6775209789184  875.7201008010624 5734.588679579036 179.7683983433934  -3830.474117105391 3724.467115793153 -393.5749051486393  5144.363161751434 -2860.097328527674 -222.0094438695209  -94.86396764352568 1547.972822369001 790.8662248882537  4663.599728667826 -2787.73154108991 380.6638826690404  -5966.518147112146 1413.269539135375 -18.71589345028027  -3177.631603208861 -5076.537660213797 6.956942281152129  -1939.246749527439 -5535.755312924505 -145.2549516481564  5515.456554148015 2618.41084567924 -7.03269306672192  -1376.252607938372 2931.648050677263 690.6182939854031  1713.819552972382 2660.828225734077 -697.31358066247  -2079.276164268765 437.8838649052317 -769.7336649779658  -2249.601195714847 5193.766548741674 271.1579261630479  5231.919636327736 -2660.773784192027 234.2562384163785  -420.5699635994641 -5886.274417636032 -86.438513484213  -3954.123196457218 1546.35229564504 -592.2840610703403  -2703.084130663607 1314.055005674285 -714.9947898199496  -1722.07842557883 4779.185853377428 438.8972868835363  -4322.245939477797 -4202.739660835512 -47.69770265749288  0.08307231220716456 0.4045691526945816 0.6941818706418497  -1967.049261448522 -2329.857051193084 21.53677472088967  2973.581446595835 908.4762016435066 -4.067324230745946  -1185.45927683799 2449.004132860931 180.5565473331226  2217.47921672345 -1736.540974383167 163.0092215921861  -1446.868969776226 253.9187006403947 -363.2179428762313  -3058.818886285299 461.4443524131391 -0.4124824967010287  584.745255043333 2769.280294912728 -155.0229364099925  2067.505775740061 -1365.93069267702 -244.8516574099301  -1609.192627536732 -259.1148955696205 352.1638828595292  1542.432133671133 2060.988215293257 282.8814291837562  -569.5139756392689 -2353.670837498739 -309.7518352353881  508.819043384911 -3397.327942554324 1.841819839280225  1228.560535680578 902.9033678786852 -404.15
[...]
<PointData  Vectors="Forcing"> 
<DataArray  type="Float64"  Name="Forcing"  NumberOfComponents="3" format="ascii">-5.0127956537403617e-06 -1.5309698927856547e-06 -2.9231277011655503e-04  -3.2738663684376684e-06 -5.9817977423390831e-07 2.9054957951643866e-04  3.2772621565265068e-05 6.4964134443973953e-07 2.7333029094682058e-04  5.8789085057403438e-05 1.8739710221106630e-06 2.4743092609529294e-04  8.7317236406352059e-05 -1.8922207458057571e-07 1.3277264359427843e-04  9.8702556223230809e-05 2.7102788372097253e-06 8.5845037274061728e-05  1.0002616259024570e-04 -1.3976315290231042e-06 1.8008411237331814e-05  9.3903986735678868e-05 -2.7942544717304069e-06 -7.5256418738157971e-05  8.6917592149022600e-05 2.2913160079317763e-07 -1.4238242698445122e-04  5.8406412751538049e-05 7.1435740352427936e-07 -2.4119290002040685e-04  3.0855319412216418e-05 3.8758393309310734e-06 -2.6383024038335195e-04  4.3255530064730883e-05 -3.0238824306468265e-05 1.9363381665742777e-04  3.9204637641805187e-05 2.0949662559613919e-05 -2.5733516104234019e-04  8.9270485107851449e-05 -2.2978273698969402e-05 3.7152694634446717e-05  7.1161867423445415e-05 -2.7812702469818762e-05 -2.0385012366131060e-04  9.2700430989813611e-05 2.6429307803557450e-05 -1.2103017655123386e-04  9.0999995817575495e-05 2.5292525952589435e-05 1.2961598002964367e-04  4.6590509239646294e-05 2.6566067277753836e-05 2.3353217553902635e-04  1.5865330442138368e-05 -2.7222953445865531e-05 -2.2556722819011890e-04  6.7822948371024197e-05 -2.2461976643108434e-05 2.0932761595388887e-04  4.7623196047937746e-05 -4.8640215901066829e-05 2.0566166443310475e-04  6.8566747766573170e-05 -4.3931979210300610e-05 1.4232426783510657e-04  4.9074026406772979e-05 -6.8816878960012304e-05 1.1326962598149546e-04  6.5393114786996723e-05 -6.1075124545815752e-05 5.4893043714511162e-05  4.4429941372921486e-05 -8.4304186135442845e-05 5.4659525518253743e-05  5.7385708180260500e-05 -6.7005954830716459e-05 -2.9888601217265259e-05  2.8711958572977298e-05 -8.5199900292610612e-05 -3.1179398010888191e-05  5.2763150508080367e-05 -8.5881287557854264e-05 -7.1470724463868716e-05  1.7689423085641756e-05 -8.7066637438748754e-05 -1.0382227505966226e-04  3.1314719671251397e-05 -7.3419618859607612e-05 -1.3718236980819838e-04  -5.5168173055858387e-07 -7.3478450255294559e-05 -1.6307350135687590e-04  7.0710960191907788e-05 -5.5438428202416979e-05 -8.6753375895514816e-05  6.3328623531114518e-05 2.1860381732824974e-05 -2.2131592318529202e-04  7.0234798292432557e-05 4.6586855426458331e-05 -1.3374896152977130e-04  8.8824416394163672e-05 5.0273456598006933e-05 -7.5518404464877529e-05  1.2174424369208321e-05 -5.5818172205206387e-05 -2.4282114013899549e-04  4.0793593954988343e-05 -4.7906264578069711e-05 -2.3149850422480651e-04  4.3247117032594337e-05 4.2455067016561713e-05 -2.2021006657482614e-04  4.3024280390111635e-05 6.5835358727434743e-05 -1.3328296587875139e-04  8.6220876783165464e-05 -2.5152925245841097e-05 -5.2122450990413214e-05  7.9722111512020138e-05 -4.6628079432962291e-05 -1.0925084668027736e-05  8.6543625169930487e-05 -2.6572706041104653e-05 1.3542095918432214e-04  1.7162080760047717e-05 2.2786703751680803e-05 2.9437363473869580e-04  6.5747570921842049e-05 2.3477137459688633e-05 2.1327978054342791e-04  6.9160084758029922e-05 4.7500600487236483e-05 1.3979976771937071e-04  2.0881046922142257e-05 -9.1499984616794089e-05 1.0453471629176620e-04  -1.6242033820913180e-05 -7.9587058280120187e-05 -1.1605969846891076e-04  2.0377306524923511e-05 -5.2221893238633952e-05 2.1936063459217103e-04  8.2250077095942904e-05 4.7012983423914314e-05 7.8483169007515706e-05  5.8685632583338858e-05 6.7251452413329385e-05 8.1866904452453150e-05  4.4161347124936982e-05 6.3359169934117275e-05 1.5345662009858422e-04  3.0174335021498102e-05 8.0851284090364557e-05 9.1169719448328949e-05  1.6357762083818712e-05 7.3275782532532228e-05 1.7544118575911488e-04  4.5707531912141389e-06 8.8024508012351312e-05 8.8910791375779240e-05  -1.4412207912459468e-05 7.6775921515075425e-05 1.3637422871385204e-04  -2.5531111784392720e-05 8.5589134106404770e-05 5.0490937163553364e-05  -4.7338075645415455e-05 7.2521304817036933e-05 1.1196371807669175e-04  -4.4195113046209668e-06 9.3676660994434171e-05 -1.2403634234122997e-05  -3.1559602237822017e-05 -7.0672546376344644e-05 -1.5075747892569021e-04  -5.0017502603000091e-05 -8.5482827620045297e-05 -6.5593100892660837e-05  -5.2065603308134432e-05 7.4989628184276837e-05 2.9636627982269195e-05  -6.8922611175531871e-05 5.9365287994957687e-05 7.8689572979717212e-05  -8.0197358763765947e-05 6.4710858861856968e-05 -1.6639643683958702e-05  -8.4752837253980099e-05 3.5627340424374748e-05 4.5323877866137076e-05  -9.0830838707352100e-05 3.8305326707624008e-05 -5.0740028324225430e-05  -8.6073123860381764e-05 4.4132792805181893e-05 1.0761508570856845e-04  -6.9831987770996008e-05 5.8503526691476347e-05 -9.6449823017959405e-05  -9.7712949059250176e-05 1.8932992551595748e-05 8.2592467856232771e-05  -9.1900353541351005e-05 3.5697376278638368e-05 -1.0405191966484283e-04  -7.8660252450529227e-05 1.3367331772006677e-05 1.5367372567619020e-04  -9.0298510998886456e-05 -1.2774582777946587e-05 1.0887450855217314e-04  -5.6662576561403608e-05 4.1453251402145600e-05 -1.9411935762254763e-04  -1.1380953279422644e-05 -3.7018367416559109e-05 -2.5989465122665804e-04  -6.1365197983336857e-05 -5.9068044692098957e-05 -1.2987569496591085e-04  -6.6373137781375633e-05 -1.4003335832688537e-05 2.1558984389648779e-04  -7.8168505935539693e-05 -3.9166765793971947e-05 1.5051362512463550e-04  -9.1485594582430934e-05 1.3606418433881504e-05 -7.4008959049556174e-05  -3.4821522493747172e-05 6.7079980198811874e-05 1.5388818677464583e-04  -6.9004249063168153e-05 1.8835884948319602e-05 -1.7452259314982150e-04  2.1168031902243191e-05 6.3513833642698424e-05 -1.9944320004536338e-04  -8.8517883429501868e-05 -2.9550718043021699e-05 4.4192413384169316e-05  -5.5686659080723288e-05 8.1835382785858357e-06 2.4201962696464641e-04  -4.4133909196164637e-05 3.7880734990241883e-05 -2.3387114867211693e-04  -6.3756892537354792e-05 -4.6324766001748887e-05 1.6397312528385033e-04  -6.1454286036693068e-05 -6.3849953738053978e-05 1.4924365292125254e-04  -4.4747262493409709e-05 6.7136725237357909e-05 -1.3378733423457379e-04  -2.4167650078162864e-05 -9.1543545578022634e-05 -2.4553844487292971e-05  -4.4999310509565455e-05 5.6156448924575560e-06 -2.6559136244926551e-04  -6.7984725449637311e-05 -9.2162509902480905e-06 -2.0974207722440871e-04  -3.5921278578735476e-05 -6.1338407459481521e-05 1.8654617149790848e-04  -3.3669019794502977e-05 -7.8084969719687680e-05 1.1739591619961778e-04  -3.0824710829920948e-05 -3.8760536267385819e-05 2.6481334242794687e-04  4.9728515778609671e-05 8.0930947145873829e-05 -1.1309534066070830e-05  -6.8065397516220549e-05 -6.6553943206590967e-05 -6.4894680942574346e-05  -8.6370474751890363e-05 -4.9044531245740649e-05 -8.5638473161509250e-05  1.6505377850996773e-05 8.0170686595740576e-05 -1.4461047460646257e-04  -7.6301413287998015e-06 7.0854164564583053e-05 -1.8813145835946528e-04  -2.5545391965941734e-06 6.0974795758781029e-05 -2.0422257936590104e-04  -2.7148151557399075e-05 2.3123850388466688e-05 -2.6155073613191485e-04  -4.5240450105337029e-05 -5.1754316589393338e-05 -2.0429052421047766e-04  2.2830759477727293e-05 6.1016108037595851e-05 2.1924064163603038e-04  -5.4987082340652018e-05 -7.5697146636509620e-05 8.1653039786281107e-05  -6.2098308014738671e-06 4.8208553940634346e-05 2.2000940574016977e-04  -1.5364472742589494e-05 1.5059352366246127e-05 3.0039336829940728e-04  -1.0267317077947701e-05 8.2806571688857488e-05 -9.8498246632952116e-05  -2.2118373223630997e-05 -1.8474427761315013e-05 -2.9699954540915398e-04  -6.8418121753541988e-06 -7.4119985717451198e-05 1.7418805155378094e-04  -4.6238419597546704e-05 -2.5694756615172433e-05 -2.2343453111534043e-04  -6.9064098946053365e-05 -3.9218914331824090e-05 -1.9405333395551536e-04  -9.2230376363953162e-05 -1.8144618362414368e-05 -1.0783996862017044e-04  -1.0604550649595738e-04 -2.3780037466392557e-05 -4.3408515424358184e-05  -9.8872563026289936e-05 -1.0019564317211636e-06 3.3557187308919715e-05  -3.8280185723651132e-05 4.0897650982233002e-05 2.4027700766234480e-04  -5.7206673959320488e-05 3.8982910541896663e-05 1.8961395603822205e-04  -1.0702784925052310e-05 -8.4454921956697281e-05 1.1796710864328013e-04  -1.7259524356829834e-06 7.5760531919864688e-05 1.6246930727757477e-04  3.8585020730457516e-05 7.7722159153359083e-05 -7.1837896327471267e-05  8.6393363574279201e-05 -2.5415216757748818e-05 -1.0397645688042356e-04  6.9838345305410614e-06 -2.7302181969157801e-05 2.5867543413870533e-04  1.6233400063552255e-05 -8.7544382285744822e-05 5.2963666013204386e-05  -2.8346406667157447e-05 6.1477216599422027e-05 -2.1000143454719494e-04  9.0488003072317294e-05 2.2719329542282826e-05 5.5096735494441923e-05  5.9454266474859089e-05 6.3703668689509400e-05 -7.8919167156492188e-05  7.4046074169466794e-05 5.7141613204356637e-05 -2.4947953528180063e-05  -7.3294724376474365e-05 -5.4528749371477574e-05 7.0641866108041775e-05  -2.7857744723194389e-05 7.9132816391531323e-05 -1.9673148023249866e-05  -5.3958572529903004e-05 7.8602438993320351e-05 -4.8856194747861380e-05  -4.1367484587880887e-06 -5.6172230236730509e-05 2.3232950268158999e-04  -2.4665051261846684e-05 -8.9001890671881203e-06 3.0329077962321376e-04  -5.3965570146400899e-05 -1.5330653541029315e-05 2.0544922176864199e-04  2.1992281111726706e-05 8.4962688700636915e-05 1.8090481925064753e-05  -1.0862818158075662e-06 -9.1574106764762668e-05 -3.8760127218407597e-05  5.2707283018003221e-05 -5.8595545110014470e-05 -1.5984512728871812e-04  9.0744739354031202e-05 2.1696183404006744e-05 -3.8115112359644684e-05  4.5073783995563585e-05 -2.6369816578792134e-05 -2.3484476955840683e-04  -8.0810539451820759e-05 -4.7951158425104357e-05 -5.3901286229032879e-06  -2.0824452476117547e-05 -6.7442652351066594e-05 -1.8159074912418711e-04  4.8480739796787561e-05 4.3828516365880692e-05 2.1505113795848333e-04  -8.2165339177896717e-05 8.8761464277203257e-06 -1.5722688416645430e-04  2.1174064914213718e-05 -6.8792841951599573e-05 1.7942058983727810e-04  2.5940169571411016e-05 4.6657391541002742e-05 -2.4381127512888102e-04  1.4415258820957337e-05 9.0293552463984836e-05 -6.3607449325200042e-05  -6.0156589336104357e-05 5.5424165662445726e-05 1.6736837872460584e-04  7.6876240288162984e-05 -3.9792649569583141e-05 6.1969325178864984e-05  -4.5870396031466079e-06 2.3455582407649267e-05 -2.7343891294394460e-04  7.4906494118489984e-05 -4.5212901661437218e-05 -1.4494763453000304e-04  -9.6111143197314211e-05 2.1851221004009040e-05 1.1740389567152315e-05  -5.1720360068017841e-05 -7.6910119167955364e-05 -4.8404149366648788e-06  -3.4623126530671422e-05 -9.8187272670206889e-05 4.8049102657351146e-05  9.0489149256054531e-05 3.9536495248823602e-05 -1.4945810819133931e-05  -2.2973338264997449e-05 5.2943884516835011e-05 -2.4087190460120311e-04  3.0580983241987289e-05 3.8324033286821054e-05 2.5757313811743137e-04  -2.7300734888967997e-05 1.1482355448642104e-05 2.8754270804652306e-04  -3.3818200240833877e-05 7.9699669679886290e-05 -7.9040996527650779e-05  7.7434510441164465e-05 -3.7637002111445864e-05 -8.3626809873234585e-05  -5.9159995328804672e-06 -9.3964331258594133e-05 9.7640446947651195e-06  -5.8747045986794212e-05 2.2292995843468519e-05 2.5225195493342020e-04  -4.3377383200426904e-05 2.1898688533581735e-05 2.6898318307476605e-04  -2.4813288536934699e-05 7.0791931631237454e-05 -1.4999084852915855e-04  -6.6413577947872424e-05 -6.1043082585296245e-05 8.0847086244372823e-06  1.2228361377846067e-06 5.4789468053622256e-06 -9.6259147437268257e-06  -2.6524411410529591e-05 -3.2262402165540850e-05 -1.9357008933627233e-05  3.7277249165540647e-05 1.3426549452294135e-05 -8.6728015479712164e-06  -1.3179720765703818e-05 3.1847750507690671e-05 -1.0433521388607988e-04  2.9642562836650687e-05 -2.3055969420420795e-05 -8.0417124503821816e-05  -2.2351080549395092e-05 1.4519358649391718e-06 1.8182058632274016e-04  -4.2915316210062866e-05 5.7342864482115552e-06 -1.0201755300485363e-05  7.5749213602049486e-06 3.3842007383549256e-05 1.0267110113530405e-04  2.7934968683950558e-05 -1.6985015772178554e-05 1.0269699068994121e-04  -2.2312627288240871e-05 -1.1964960150467005e-06 -1.7164975508350119e-04  1.9480399837164513e-05 2.4719588102572319e-05 -1.7327483976393722e-04  -7.2218391696349691e-06 -3.4349090658587231e-05 1.2503977845427713e-04  7.1428615813016336e-06 -5.0717599074702954e-05 7.7410624222706700e-06  1.5944083387465419e-05 9.8862871571725741e-06 2.2910662100698219e-04  -6.0895690965040208e-06 -3.9924172553612586e-05 -1.4446231362677943e-04  1.6648360367597824e-05 -2.4170578180398695e-07 -2.2085972943482586e-04  -3.0439605002468155e-05 3.7402649445717879e-05 6.8055357915856171e-05  -4.2771059755868156e-05 -1.4562338956531712e-05 7.9844519133145586e-05  4.5470896872961962e-05 3.0262432228133746e-06 -1.4531195813450844e-04  -6.0070552564135121e-06 2.0412253649555949e-05 -2.2907069030624080e-04  7.8740246118164076e-06 4.5268487175590838e-05 -8.5220599756757903e-05  3.6143851145396157e-05 2.5868354292602031e-05 1.3754875644693716e-04  3.8909209364267171e-05 3.8982254756261463e-05 -8.0684784140622351e-07  -4.1145475198937464e-05 1.9242816020037725e-05 -1.5842287546885515e-04  4.6651246819572712e-05 -1.3502505195734307e-05 1.6363951112852118e-05  -1.1770149944478841e-05 3.0225704948832113e-05 2.0202885538306601e-04  -4.8782109349424015e-05 -1.5863303613631669e-05 -9.5672366397373882e-05  4.9958501937147897e-05 1.2353537193455782e-06 1.2847702533303889e-04  3.2880149114068868e-05 -3.6118180687847275e-05 2.8366290269622201e-05  -4.6103975547754831e-05 1.5121471720879411e-05 1.3642931664260927e-04  1.0328048041929084e-05 -1.6835276262962743e-05 2.0985231137913860e-04  -1.6198693640445849e-05 -4.9781117924530190e-05 8.5335913589059041e-05  -1.6017094745991014e-05 -5.1173792776116028e-05 -8.3142517419815406e-05  1.9255236708583647e-05 -4.6172678562624660e-05 -1.1737813022485811e-04  -4.1548330375847071e-05 3.8575195947733255e-05 -2.6553366135136205e-05  1.5898871131101881e-05 -4.5634463302132888e-05 1.5046405316629559e-04  -9.6270168634795928e-06 5.2504950804775771e-05 2.2093655796347151e-05  -2.8697446578839975e-05 -2.0658802649915782e-05 2.1804690477666191e-04  4.7879552067206782e-05 2.4163058428278121e-05 -1.0442589073115162e-04  5.0994744735650482e-06 2.6017533559211077e-05 -8.4591631280967134e-05  1.8789006191678171e-05 1.4698192962295924e-05 1.0984699183321086e-04  </DataArray> 
</PointData> 
</Piece>
</UnstructuredGrid>
</VTKFile>