<?xml version="1.0"?>
<VTKFile type="UnstructuredGrid"  version="0.1"  >
<UnstructuredGrid>
<Piece  NumberOfPoints="201" NumberOfCells="657">
<Points>
<DataArray  type="Float64"  NumberOfComponents="3"  format="ascii">-0.03207701191466746 -0.4335692640654357 821.1915204273788  -0.2266896976059963 -0.3883094346846606 -822.263876691447  1906.239691067913 0.3320488977100459 -780.4752475801421  3625.515765226824 0.389742632642159 -663.7088989562285  4984.725894769167 -0.2701429902977929 -491.6257073009602  5849.085287472375 -0.09790716822062816 -261.8845051097732  6147.127439987935 -0.679614892594506 1.079588077060388  5850.044722925201 -1.166497753834864 261.3545896234168  4984.349865220232 -0.5218139378602475 490.597032195134  3624.881165624631 0.09368112401324946 663.5093815484865  1905.996437378818 0.5209225826193755 779.2167617350631  2414.287762909664 -1794.558960882976 -714.1954607845965  2399.820572770708 1393.401415064727 732.9227383907991  5848.432571911007 -1591.37412114457 -128.134008335217  4225.581784678564 -1741.534946004381 550.8151262857975  5328.477334188958 1612.668181023643 354.7820423512165  5306.940904031998 1610.026433107156 -360.2864057761766  2695.691582579934 1605.636110041901 -703.8011507300457  928.9819157795555 -1605.616361593287 781.1133754444256  4197.180480169995 -1604.827758104019 -561.8754790900543  2921.604833710357 -3149.304664549261 -579.7929726020539  4338.169582552555 -3084.0081051814 -405.9757858323084  2972.43008092815 -4405.452334403377 -393.2167240451238  4180.139341329483 -4124.555205835488 -197.6042397176565  2624.205653672384 -5236.6711485469 -166.6335770740125  3733.727334469464 -4694.274445425497 42.96454879809862  1960.681825963491 -5593.040896575919 75.50345506347973  2846.933571103646 -4861.56358728515 289.0760264476911  1027.377499595944 -5449.859820373435 303.9366473738294  1826.413618313226 -4454.999255413504 494.7378524056891  -71.11063520744348 -4785.123999924651 494.556961562068  4369.90549710742 -3820.923768463771 241.5498393813759  4198.417604404732 1604.362254531992 561.5336084266793  4250.5816210874 3103.570483427082 420.1703017828328  5134.791853525437 2965.81404817688 193.6901166989055  683.0419440452748 -3558.939837505901 649.7100790826172  2503.920212822215 -3121.220894972555 614.4663857939961  2921.017430837035 2969.103830965035 598.4751338215153  2812.355582934108 4338.975904040222 425.4387814653568  5862.884628287825 -1553.866018862531 127.7557481343983  5170.035436289909 -3208.751056903065 16.01091309182199  5343.131327094529 -1614.801165394365 -350.467519274901  929.8109301527887 1605.820350169881 -780.3288502901446  4156.399427905706 1564.767672832868 -569.8791215889801  4215.431381086959 3085.539785569789 -428.7018556724799  1274.719881977257 -5289.231115027233 -342.4052088592816  -893.5660353118325 -5516.366433791753 288.2420456839175  1247.184616831614 -3231.150973970236 -669.9092891286763  5103.361447353271 3005.308348525089 -199.0992323630182  3814.620180812908 4338.998342640018 -241.9943063693823  2714.336596226332 4230.873531968934 -456.1807275531924  2140.195548703035 5263.519198019312 -257.6224624382614  947.2763873758495 4947.604586046021 -444.3637896655168  276.3889133298933 5696.473416935194 -234.8988986464342  -969.7370712312708 5091.546372099965 -410.5003502540312  -1596.838878952342 5587.831023236999 -180.0480263695189  -2820.190729214733 4781.387125652439 -318.0407953030796  -307.7515209689461 5917.833682728236 16.02347651738319  -1967.981910795085 -4598.650790322293 456.4735583203519  -2712.76740130007 -5073.422119814316 232.4279665025864  -3306.817543485262 4961.523351954545 -87.93064632627292  -4369.164105262128 3885.070354704592 -221.154886438084  -4647.474173181905 3869.260451061074 19.80901400461927  -5460.541621686275 2555.022274239789 -137.0876503281702  -5533.586639189724 2425.02570810715 126.9185377573596  -4854.795937954566 2425.135699768515 -386.738743859277  -4476.984455455388 3587.478911039663 276.5174596991206  -5776.060590606366 1060.400738217641 -248.5804662863493  -5116.652745594242 1996.043995386864 372.3608113596142  -4925.626485345863 683.5316777992033 -491.9352844027378  -5524.626796014653 -771.190301997638 -354.278391060287  -3811.963358554045 3013.046782571256 497.8493238734936  -852.0894120433898 -2466.648648906847 738.0373022559229  -3711.549048931621 -3931.731821167173 374.8757606234623  -4428.765261900383 -1045.784758598729 -555.5489302859121  -4779.020222202512 -2450.182418770777 -400.1065128079917  -5909.042368840621 673.6205801190815 214.0487237860135  -2060.046905829613 3965.40192913677 -551.8185480485126  -4218.165257409039 1287.783663634111 576.4947398298798  1326.581353622828 4008.080799089254 583.696372542587  -5688.340634902868 -2003.260650687757 -145.8421160647019  -3589.537158134006 418.7142132225517 -664.7098517896835  -2796.592118345343 2295.339213805414 659.3270031306432  -3447.885895582537 -2639.147814810065 -579.3857362644551  -3607.92415813741 -3926.088982992647 -392.9007609677224  -3039.54112453101 4422.35946543119 377.2208623464273  -1547.332605072154 -5720.368332167137 55.60598021593863  -2945.663760906445 385.9681170543385 718.00436158399  -4351.561730789003 -558.1795783410032 578.7171753445003  -2083.547659034565 -3940.68563219014 -551.4020092961658  -2087.780730475656 -5014.949865579855 -352.9528052745036  -1797.445728893408 -2497.197179053614 -704.3560250860155  3116.996274309342 5105.035863891721 -25.04243165307988  -4193.378656263468 -4209.892545898887 150.4701058676791  -5049.02430630974 -2843.711434952629 264.1615955390881  1102.612721462468 5155.347758384554 389.4746169499824  -398.8631047791721 4653.791142348496 512.0632436663102  -138.3518400367341 3507.889307515031 663.5415699967219  -1671.08272090014 1483.559132258532 761.8859245459493  -2785.527846484045 -3219.854728073254 585.2545302137105  1453.973325362193 3920.097404949062 -588.8063784447289  -3447.634341191845 -4741.328819809718 -185.7535091614732  -456.6408358106997 3007.434439906642 -705.7796233878004  -1012.893426545434 1289.855469191377 -790.5471468003591  -684.6286717195693 5545.847991900986 287.9601648650041  -1303.681405311514 -914.1208866408276 791.8750754965766  -445.7637451888079 -4872.356857941997 -473.3842990763616  -2815.212451359926 -1466.031147549919 703.4029901833011  -4337.804508116116 -2359.959405602367 486.6891283741878  -5391.456366939836 -1132.277708431766 376.0821575991164  -5887.476361799689 -1466.59035775471 121.473614030156  -6121.074716508197 -190.4648570503393 -74.04049221890124  -2368.736233469981 2555.492327129157 -670.4572945845201  -3591.636243089011 2824.920927567684 -545.850407683331  -525.0051599032868 -5586.155958329966 -278.0738320473385  -209.622796907379 4393.235035868583 -557.3068771815908  2451.934841603971 5213.463427113814 223.2080081915445  5306.735346390909 -1542.502488000954 366.6051495075288  308.413737019325 -1685.040751714663 -785.1454948078239  972.4045772274593 -5782.889373316641 -131.7578320330113  -1876.034349098353 3799.935293814297 582.8739538492795  5875.340157245905 1491.517229203101 -128.9325344965649  3926.772477920203 4298.809482039536 221.2260585061915  4629.696880758096 3892.590486274235 -10.17941444191455  -4695.756349568885 -3525.619970620035 -214.2048387068997  -2035.166441902428 5574.360550877984 68.86173612630067  -3414.099257889261 4805.852271628513 158.2358843992839  -334.6561277959097 -3637.691350405783 -647.1812407084456  -1438.333105315947 -663.6063264124983 -792.7893314816764  -3029.599736563054 -1064.944657198529 -698.4095500191844  1419.529106671355 5761.318043205754 -45.07121949039802  165.3392597125603 -5889.794354601013 95.08650016693548  3400.89703652068 -3755.409620389291 454.7019802167415  5885.387001491837 1510.886257854258 114.1110937629107  2696.803742192302 -1593.83189024973 704.3947681944761  -5200.246257501711 -3160.41306765444 20.51947842259993  -1103.926209457278 -3924.824269364261 602.2077982519464  3003.864944526375 2878.781790807993 -597.2891613030299  -5276.511351281387 473.9475685929172 426.5655279416926  1383.4172848148 -4428.465669263906 -522.1333167892097  1511.414483298435 2858.186274455618 691.6775209789184  875.7201008010624 5734.588679579036 179.7683983433934  -3830.474117105391 3724.467115793153 -393.5749051486393  5144.363161751434 -2860.097328527674 -222.0094438695209  -94.86396764352568 1547.972822369001 790.8662248882537  4663.599728667826 -2787.73154108991 380.6638826690404  -5966.518147112146 1413.269539135375 -18.71589345028027  -3177.631603208861 -5076.537660213797 6.956942281152129  -1939.246749527439 -5535.755312924505 -145.2549516481564  5515.456554148015 2618.41084567924 -7.03269306672192  -1376.252607938372 2931.648050677263 690.6182939854031  1713.819552972382 2660.828225734077 -697.31358066247  -2079.276164268765 437.8838649052317 -769.7336649779658  -2249.601195714847 5193.766548741674 271.1579261630479  5231.919636327736 -2660.773784192027 234.2562384163785  -420.5699635994641 -5886.274417636032 -86.438513484213  -3954.123196457218 1546.35229564504 -592.2840610703403  -2703.084130663607 1314.055005674285 -714.9947898199496  -1722.07842557883 4779.185853377428 438.8972868835363  -4322.245939477797 -4202.739660835512 -47.69770265749288  0.08307231220716456 0.4045691526945816 0.6941818706418497  -1967.049261448522 -2329.857051193084 21.53677472088967  2973.581446595835 908.4762016435066 -4.067324230745946  -1185.45927683799 2449.004132860931 180.5565473331226  2217.47921672345 -1736.540974383167 163.0092215921861  -1446.868969776226 253.9187006403947 -363.2179428762313  -3058.818886285299 461.4443524131391 -0.4124824967010287  584.745255043333 2769.280294912728 -155.0229364099925  2067.505775740061 -1365.93069267702 -244.8516574099301  -1609.192627536732 -259.1148955696205 352.1638828595292  1542.432133671133 2060.988215293257 282.8814291837562  -569.5139756392689 -2353.670837498739 -309.7518352353881  508.819043384911 -3397.327942554324 1.841819839280225  1228.560535680578 902.9033678786852 -404.15
[...]
<PointData  Vectors="Coriolis"> 
<DataArray  type="Float64"  Name="Coriolis"  NumberOfComponents="3" format="ascii">-2.8148929959611439e-10 2.9671264743336344e-11 0.0000000000000000e+00  -2.2875519126254644e-10 1.5761617723458196e-10 0.0000000000000000e+00  2.2049932989917077e-10 -8.9065353210947872e-08 0.0000000000000000e+00  1.9214778036148262e-10 -1.6901807577517477e-07 0.0000000000000000e+00  -2.0370290164819901e-10 -2.2874611834621101e-07 0.0000000000000000e+00  -1.1999150050042194e-10 -2.6047090793750677e-07 0.0000000000000000e+00  -5.2795207530399101e-10 -2.7132808485587578e-07 0.0000000000000000e+00  -8.1112268223390488e-10 -2.6110946417954505e-07 0.0000000000000000e+00  -3.7156137454754433e-10 -2.2845577338342549e-07 0.0000000000000000e+00  2.5413306330693689e-11 -1.6865152571567629e-07 0.0000000000000000e+00  2.9866503488376972e-10 -8.8948526646461302e-08 0.0000000000000000e+00  -8.3639667717392844e-08 -1.1232373554625725e-07 0.0000000000000000e+00  6.4546763750397410e-08 -1.1244435111107201e-07 0.0000000000000000e+00  -6.9814500944126276e-08 -2.5656752844115700e-07 0.0000000000000000e+00  -8.0059404213311416e-08 -1.9595993047497200e-07 0.0000000000000000e+00  7.2929962042378871e-08 -2.4023581063206099e-07 0.0000000000000000e+00  7.1029429252241490e-08 -2.3968512565051775e-07 0.0000000000000000e+00  7.4397809704610337e-08 -1.2530242188120364e-07 0.0000000000000000e+00  -7.4450805192227646e-08 -4.3256338184134609e-08 0.0000000000000000e+00  -7.3834798266940270e-08 -1.9398232212618282e-07 0.0000000000000000e+00  -1.4525120017212077e-07 -1.3504789841455437e-07 0.0000000000000000e+00  -1.4020120084635239e-07 -1.9840041032089553e-07 0.0000000000000000e+00  -1.9810955286349999e-07 -1.3445185152070830e-07 0.0000000000000000e+00  -1.7843235189074609e-07 -1.8336849573544874e-07 0.0000000000000000e+00  -2.2920493468386430e-07 -1.1587896833974856e-07 0.0000000000000000e+00  -2.0182946910424388e-07 -1.6289289974591879e-07 0.0000000000000000e+00  -2.4355635976551483e-07 -8.5220341560235437e-08 0.0000000000000000e+00  -2.1378275282705655e-07 -1.2590497442702997e-07 0.0000000000000000e+00  -2.4117587837985571e-07 -4.6639386737788311e-08 0.0000000000000000e+00  -2.0407880234502726e-07 -8.4026593827502559e-08 0.0000000000000000e+00  -2.1895543772428770e-07 3.3851386007947309e-09 0.0000000000000000e+00  -1.6918368701944051e-07 -1.9582101602533803e-07 0.0000000000000000e+00  7.3513351736463947e-08 -1.9494662325055180e-07 0.0000000000000000e+00  1.4057943199511009e-07 -1.9488865405609013e-07 0.0000000000000000e+00  1.2850480616187849e-07 -2.2624432012345076e-07 0.0000000000000000e+00  -1.6519376340689639e-07 -3.1339948724153366e-08 0.0000000000000000e+00  -1.4510469141153254e-07 -1.1661651755120150e-07 0.0000000000000000e+00  1.3657677519932398e-07 -1.3497531109615321e-07 0.0000000000000000e+00  1.9624924732130484e-07 -1.2817900922125449e-07 0.0000000000000000e+00  -6.9004007623235288e-08 -2.5935617825034235e-07 0.0000000000000000e+00  -1.4089755612627999e-07 -2.2923345575977559e-07 0.0000000000000000e+00  -7.3483408161693449e-08 -2.4283953779188447e-07 0.0000000000000000e+00  7.4639815800873003e-08 -4.3799436107382497e-08 0.0000000000000000e+00  7.2158379259487275e-08 -1.9286592657658197e-07 0.0000000000000000e+00  1.3887471651090749e-07 -1.9151420669612631e-07 0.0000000000000000e+00  -2.3548663872719621e-07 -5.7218959856034937e-08 0.0000000000000000e+00  -2.4532816079249237e-07 4.1268901524859858e-08 0.0000000000000000e+00  -1.4969953089813692e-07 -5.8171827184737787e-08 0.0000000000000000e+00  1.3293186464162814e-07 -2.2721666632559417e-07 0.0000000000000000e+00  1.9026868712543801e-07 -1.6884039214494395e-07 0.0000000000000000e+00  1.9142376356308754e-07 -1.2431613177948033e-07 0.0000000000000000e+00  2.3387698647974744e-07 -9.6019964870662940e-08 0.0000000000000000e+00  2.2384939328566650e-07 -4.3700842983604799e-08 0.0000000000000000e+00  2.5184179064279371e-07 -1.2100032165958391e-08 0.0000000000000000e+00  2.3086373940659855e-07 4.3836124030097651e-08 0.0000000000000000e+00  2.4245274866928395e-07 6.9787703375322983e-08 0.0000000000000000e+00  2.1383889686008324e-07 1.2742789187222775e-07 0.0000000000000000e+00  2.5660190051292458e-07 1.3880935907818979e-08 0.0000000000000000e+00  -2.0939879817731625e-07 9.0417112617085741e-08 0.0000000000000000e+00  -2.2231814594965246e-07 1.2052322780631870e-07 0.0000000000000000e+00  2.1656049241942323e-07 1.4618634567519603e-07 0.0000000000000000e+00  1.7248038833179696e-07 1.9401055222582935e-07 0.0000000000000000e+00  1.6675566508122304e-07 2.0166080501379317e-07 0.0000000000000000e+00  1.1160902308006213e-07 2.4305621033521607e-07 0.0000000000000000e+00  1.0576265280001043e-07 2.4508135353823571e-07 0.0000000000000000e+00  1.0851207459606385e-07 2.1915849793626650e-07 0.0000000000000000e+00  1.5962116504962098e-07 1.9992282369262586e-07 0.0000000000000000e+00  4.7260925239482176e-08 2.5671788796336228e-07 0.0000000000000000e+00  8.9016404828659616e-08 2.3033198801568418e-07 0.0000000000000000e+00  3.2354326527549614e-08 2.2568508125470376e-07 0.0000000000000000e+00  -3.5005542720735943e-08 2.4823440311522145e-07 0.0000000000000000e+00  1.3746939571464416e-07 1.7564565506442419e-07 0.0000000000000000e+00  -1.1498343299982316e-07 3.9845246341451259e-08 0.0000000000000000e+00  -1.7811258682548952e-07 1.6966865833520565e-07 0.0000000000000000e+00  -4.8290096783403219e-08 2.0483261121367596e-07 0.0000000000000000e+00  -1.1022544049681078e-07 2.1676189577099168e-07 0.0000000000000000e+00  3.0422299859269528e-08 2.6288384021338786e-07 0.0000000000000000e+00  1.8153790053007134e-07 9.4785290937267094e-08 0.0000000000000000e+00  5.9595295726159853e-08 1.9572138678870981e-07 0.0000000000000000e+00  1.8433214159571631e-07 -6.1912404474913310e-08 0.0000000000000000e+00  -8.7218693754265786e-08 2.4947407296126383e-07 0.0000000000000000e+00  1.9947965501861158e-08 1.6690379577225311e-07 0.0000000000000000e+00  1.0652983012714172e-07 1.2998221784531217e-07 0.0000000000000000e+00  -1.2117700683673289e-07 1.5938973133526904e-07 0.0000000000000000e+00  -1.7754964336289372e-07 1.6484224549212803e-07 0.0000000000000000e+00  2.0095366281722690e-07 1.3820184484087004e-07 0.0000000000000000e+00  -2.4653720597376984e-07 6.7065217733828508e-08 0.0000000000000000e+00  1.7672146206351676e-08 1.3729098190011202e-07 0.0000000000000000e+00  -2.5702517222386783e-08 2.0212598007723508e-07 0.0000000000000000e+00  -1.8082272259582500e-07 9.6067079044142955e-08 0.0000000000000000e+00  -2.2374836564121982e-07 9.4269573603076244e-08 0.0000000000000000e+00  -1.1587103399455422e-07 8.4237073526298696e-08 0.0000000000000000e+00  2.2115043649894114e-07 -1.3787304772732595e-07 0.0000000000000000e+00  -1.8542973758742419e-07 1.8658239907529092e-07 0.0000000000000000e+00  -1.2563073480162394e-07 2.2472044956050735e-07 0.0000000000000000e+00  2.3330508095713006e-07 -5.0089227241046494e-08 0.0000000000000000e+00  2.1359877694273183e-07 1.8608477296074871e-08 0.0000000000000000e+00  1.6197288353690842e-07 6.5425788568605583e-09 0.0000000000000000e+00  6.9464642667064524e-08 7.8120166451333268e-08 0.0000000000000000e+00  -1.4902144576079286e-07 1.2924455460682572e-07 0.0000000000000000e+00  1.8132803910283624e-07 -6.7564235791958310e-08 0.0000000000000000e+00  -2.1038476442443652e-07 1.5382070036740185e-07 0.0000000000000000e+00  1.3929643547586120e-07 2.1172431183705278e-08 0.0000000000000000e+00  6.0031433533603280e-08 4.7717599929353312e-08 0.0000000000000000e+00  2.4790205739241897e-07 3.0699700891769701e-08 0.0000000000000000e+00  -4.3193908202368645e-08 6.1127019695038514e-08 0.0000000000000000e+00  -2.2304082678637048e-07 2.0790919842723986e-08 0.0000000000000000e+00  -6.7413959373995984e-08 1.3096796486801558e-07 0.0000000000000000e+00  -1.0827903306078948e-07 2.0015513804168983e-07 0.0000000000000000e+00  -5.0505477608229681e-08 2.4245811109408693e-07 0.0000000000000000e+00  -6.3000635675311704e-08 2.5621718668618701e-07 0.0000000000000000e+00  -7.9904867406749775e-09 2.7044166674382467e-07 0.0000000000000000e+00  1.1845551661891681e-07 1.1035559135489870e-07 0.0000000000000000e+00  1.2985382682908450e-07 1.6655237276311172e-07 0.0000000000000000e+00  -2.4834896009351652e-07 2.4754818003984579e-08 0.0000000000000000e+00  2.0126993331651580e-07 9.6225921904410515e-09 0.0000000000000000e+00  2.2865609770445910e-07 -1.0887676463382477e-07 0.0000000000000000e+00  -6.9524084282120372e-08 -2.4074720902703075e-07 0.0000000000000000e+00  -7.8146021605585783e-08 -1.4448011546538837e-08 0.0000000000000000e+00  -2.5253106477624402e-07 -4.3398647739218531e-08 0.0000000000000000e+00  1.7539350958940833e-07 8.6113102583436570e-08 0.0000000000000000e+00  6.4951400779372914e-08 -2.5893377661817533e-07 0.0000000000000000e+00  1.8796950789629744e-07 -1.7315084351156065e-07 0.0000000000000000e+00  1.6764405501662541e-07 -2.0204751664508364e-07 0.0000000000000000e+00  -1.5540757574538106e-07 2.0926131998414953e-07 0.0000000000000000e+00  2.4303279199397711e-07 8.8895729942514115e-08 0.0000000000000000e+00  2.0862010755813861e-07 1.4901224882562222e-07 0.0000000000000000e+00  -1.6842050779687569e-07 1.5698266824249109e-08 0.0000000000000000e+00  -3.0510714507406851e-08 6.7733774924656374e-08 0.0000000000000000e+00  -4.8828490941476244e-08 1.4100852081306634e-07 0.0000000000000000e+00  2.5207000200406757e-07 -6.2298578867809261e-08 0.0000000000000000e+00  -2.5686025572829990e-07 -6.5354881211582456e-09 0.0000000000000000e+00  -1.7099868038572889e-07 -1.5507802263182412e-07 0.0000000000000000e+00  6.6041021464208769e-08 -2.5911689414655016e-07 0.0000000000000000e+00  -7.3728180591587267e-08 -1.2511231263901384e-07 0.0000000000000000e+00  -1.3832459563682415e-07 2.3036663804000002e-07 0.0000000000000000e+00  -1.8107947706634956e-07 5.1417582547285262e-08 0.0000000000000000e+00  1.3263918269532310e-07 -1.3923920701736331e-07 0.0000000000000000e+00  2.1695502836821533e-08 2.4020930109414624e-07 0.0000000000000000e+00  -2.0349150432468468e-07 -6.3645084693738922e-08 0.0000000000000000e+00  1.3298502726712631e-07 -7.0891989194435801e-08 0.0000000000000000e+00  2.5045488083168179e-07 -3.8679304927668799e-08 0.0000000000000000e+00  1.6844232217428693e-07 1.7455884840330666e-07 0.0000000000000000e+00  -1.2669622823287669e-07 -2.2983345631845390e-07 0.0000000000000000e+00  7.1957256265932508e-08 4.6801208351959238e-09 0.0000000000000000e+00  -1.2641371975059258e-07 -2.1133716873772227e-07 0.0000000000000000e+00  6.1910042549054548e-08 2.6209181812948610e-07 0.0000000000000000e+00  -2.2258655770328411e-07 1.4043208612728271e-07 0.0000000000000000e+00  -2.3910934084947258e-07 8.4871173897946230e-08 0.0000000000000000e+00  1.1384357114322889e-07 -2.4393629372327953e-07 0.0000000000000000e+00  1.3594480035044610e-07 6.3898468356940198e-08 0.0000000000000000e+00  1.2245580000228329e-07 -8.0361009589850379e-08 0.0000000000000000e+00  2.0740034534469574e-08 9.6953839948546492e-08 0.0000000000000000e+00  2.3147503351515629e-07 1.0090211547494059e-07 0.0000000000000000e+00  -1.1829568858795995e-07 -2.3365934574804457e-07 0.0000000000000000e+00  -2.5760912149384650e-07 1.9924033301496832e-08 0.0000000000000000e+00  7.1380947164984550e-08 1.8340346295118131e-07 0.0000000000000000e+00  6.0587982087765319e-08 1.2584022631399376e-07 0.0000000000000000e+00  2.1583549122807202e-07 7.8375854931227373e-08 0.0000000000000000e+00  -1.8359646696678305e-07 1.9081734532299623e-07 0.0000000000000000e+00  2.2899214889632927e-10 -2.1660268236090225e-11 0.0000000000000000e+00  -1.0915041459574502e-07 9.2052251297337595e-08 0.0000000000000000e+00  4.2431145726570265e-08 -1.3850288757458990e-07 0.0000000000000000e+00  1.1482162931700608e-07 5.5838477852331109e-08 0.0000000000000000e+00  -8.1717751604923456e-08 -1.0397330775807468e-07 0.0000000000000000e+00  1.1840637287485871e-08 6.9286516723233849e-08 0.0000000000000000e+00  2.0956159719137544e-08 1.4275806692163028e-07 0.0000000000000000e+00  1.2929043503433139e-07 -2.7558928843619933e-08 0.0000000000000000e+00  -6.4563529169974717e-08 -9.7539447010665724e-08 0.0000000000000000e+00  -1.2011666896839012e-08 7.6603349238944603e-08 0.0000000000000000e+00  9.6469859973177614e-08 -7.3005366372316298e-08 0.0000000000000000e+00  -1.1121178733764080e-07 2.6880660035553971e-08 0.0000000000000000e+00  -1.5920645745957892e-07 -2.3596625001315918e-08 0.0000000000000000e+00  4.2836087584641237e-08 -5.8443434184136971e-08 0.0000000000000000e+00  -1.2530045576994469e-07 2.2814669040455693e-08 0.0000000000000000e+00  -1.4808952722252456e-08 -5.1063365867487687e-08 0.0000000000000000e+00  1.2133758207035640e-07 9.8066858433776956e-08 0.0000000000000000e+00  -5.6698801328663802e-08 1.4361494065354537e-07 0.0000000000000000e+00  7.4977179912160878e-09 -1.4626433968683885e-07 0.0000000000000000e+00  7.5691546123347526e-08 1.9842851122859495e-08 0.0000000000000000e+00  1.7118756244745258e-07 -3.0130228778121032e-08 0.0000000000000000e+00  1.0004266566889162e-07 -1.2437544786631788e-07 0.0000000000000000e+00  1.4205550671346500e-07 -1.2528841374489712e-07 0.0000000000000000e+00  6.4283426356429576e-08 1.4255538819571776e-07 0.0000000000000000e+00  -5.3567271989201984e-08 -1.7656170400665154e-07 0.0000000000000000e+00  1.1143102200091458e-07 3.4892028631422148e-08 0.0000000000000000e+00  -5.8350887750858191e-08 1.6915981717721696e-07 0.0000000000000000e+00  9.5912836480193771e-09 -1.6523975099632246e-07 0.0000000000000000e+00  -1.3944961405382844e-07 -1.2263715796115169e-07 0.0000000000000000e+00  5.1600122350772561e-08 1.5730075765547523e-07 0.0000000000000000e+00  -5.5176036644635770e-08 -3.6255335729219797e-08 0.0000000000000000e+00  -1.7505241171328539e-07 5.6771308734523174e-08 0.0000000000000000e+00  -1.8462853921673824e-07 5.5186122074049792e-08 0.0000000000000000e+00  -1.6201386509756845e-07 -6.4976268760964293e-08 0.0000000000000000e+00  1.3926748683971648e-07 1.4348048204477108e-07 0.0000000000000000e+00  -1.5812881236232489e-07 -5.5123209180616039e-08 0.0000000000000000e+00  1.8783716072317774e-07 3.9521380898506202e-08 0.0000000000000000e+00  -6.9963480135764965e-08 9.5452694363888335e-08 0.0000000000000000e+00  9.0624599985573266e-08 -1.6542866957307725e-07 0.0000000000000000e+00  8.4968634814299843e-08 -2.0927335506534491e-08 0.0000000000000000e+00  4.6023094229276531e-08 -6.2868176915405547e-08 0.0000000000000000e+00  </DataArray> 
</PointData> 
</Piece>
</UnstructuredGrid>
</VTKFile>