<?xml version="1.0"?>
<VTKFile type="UnstructuredGrid"  version="0.1"  >
<UnstructuredGrid>
<Piece  NumberOfPoints="201" NumberOfCells="657">
<Points>
<DataArray  type="Float64"  NumberOfComponents="3"  format="ascii">-2.089608793250199 -0.6817244332059194 840.6378897189546  -1.339118556611848 -0.2988565275297299 -840.9834591467783  1910.744098756804 0.155060049559811 -801.351825945968  3632.998089655075 0.6041692292336612 -675.9384205589454  5003.148127656849 -0.2690644623623173 -509.0215001448238  5880.057727938643 0.8918172016366449 -261.7089450230409  6181.347545944755 -0.7831977893063855 6.780719988907729  5878.158230446199 -1.328288622871846 265.5946751047952  5002.900868454128 -0.09144794935035433 505.0863875047452  3632.844862509614 0.1285870726570549 678.4056728304586  1909.929699695981 1.504081901535109 804.8835766047184  2421.393772235443 -1799.002125733722 -753.3999865119783  2404.149010662164 1396.177351418902 750.1021350655278  5881.678383535588 -1600.167030746445 -127.283219473014  4236.84067983931 -1746.88900572023 556.9427864989066  5353.804612808434 1619.148378189549 354.375584264399  5330.98334028771 1618.688026011095 -358.0305825069442  2703.187353744085 1609.80742580224 -727.6645616773063  931.2899462100753 -1610.25019883957 818.8855130796733  4208.212037453925 -1608.382269321472 -568.1072163593757  2929.351199034601 -3157.359351400188 -591.1630761407932  4351.764351144844 -3093.337671427058 -407.0966687542409  2984.711211814016 -4424.202620172483 -399.7764450653446  4204.411234388845 -4151.150944460134 -197.6986816990715  2639.388363850411 -5268.616258780542 -164.795401331659  3756.020479294205 -4725.017004393195 35.77071846577312  1972.185149124928 -5627.063017391794 72.8419213479245  2865.040911355871 -4893.115552587788 293.59938630587  1031.408606774466 -5479.395665818751 301.9710507526161  1832.425742001026 -4470.37711379455 511.6462937029135  -71.10583832409901 -4799.54614970564 502.4698374121732  4389.87824778778 -3839.251062462949 238.3136290865631  4206.555708421779 1607.869255135178 564.3140806774751  4264.770497582119 3114.407162631853 426.1321541550481  5166.673140688843 2986.832505538323 187.681705853653  685.5743660070506 -3566.758266784429 663.2923560448879  2509.268585384261 -3127.334004837787 624.2532722558421  2927.5092823157 2975.781290685812 607.1416702200939  2821.536290854915 4354.903886902282 432.9131881630124  5891.309816021866 -1562.211656664429 121.5919425801526  5195.830558587879 -3225.981604547795 12.27586851582407  5362.91247143021 -1621.002880728077 -344.879437923028  931.9116496057768 1608.331467723362 -793.3579649855395  4165.833781889297 1568.365381811304 -575.5160071712155  4231.951774412188 3098.133116351069 -433.5667043517516  1280.435744227952 -5318.681547927357 -344.7606719511366  -896.7895155164628 -5540.924210806347 279.1215113170783  1249.662843230166 -3239.324248794024 -691.8930996819631  5128.87605131566 3020.827901006417 -193.7539327315792  3834.300429918493 4363.887131221989 -237.8242539854101  2723.382620952461 4245.999786881114 -461.8075244996245  2148.395011309472 5289.00306142752 -255.3066222809557  950.3292083335737 4965.027919352171 -439.4209051357774  278.2375609561845 5726.260650067856 -229.3973736691397  -973.0750453600798 5109.102096698177 -415.2573522864705  -1606.597149988865 5623.77977618898 -179.2692556538395  -2832.211743654659 4802.322792588913 -315.57974756748  -308.7107167935325 5957.184716450498 12.90877812507264  -1974.06248341547 -4613.901025557603 463.3244080618001  -2729.519781816415 -5105.688485130411 233.1985430259013  -3324.219149253537 4990.80181958434 -85.73706481342816  -4391.187664716323 3904.151695054732 -216.1809128283122  -4680.767231506635 3898.151811857186 15.77548377995827  -5486.377641109571 2568.836515166584 -136.4590681192444  -5563.596925849512 2440.163112401914 124.3014439853663  -4878.078358133793 2438.835156141639 -395.9896072729038  -4497.660084222858 3606.120700822955 271.9604781770379  -5807.448125025574 1066.6260497822 -247.7142931862741  -5142.606079805305 2007.519966214867 381.2076481470986  -4941.38109992702 685.2258840441073 -502.5946447910554  -5549.801955039849 -774.0363096389608 -359.164233276509  -3820.907707520293 3021.018201259853 497.7915227628541  -852.8493445050804 -2470.632615705074 757.3980712312011  -3724.539649977067 -3945.285201496537 375.3059469167277  -4438.517313998568 -1047.264110339948 -558.1265628037783  -4798.048831141447 -2460.728652606118 -396.6865732121928  -5937.492780371569 677.6257221562053 212.9965509642354  -2066.748673763424 3979.893929744047 -574.7245840866944  -4228.789386275515 1290.521748624703 596.4827516169713  1329.18655510548 4019.695397498442 596.7499558725908  -5721.163231756129 -2014.892655457349 -144.8305357336804  -3596.795924854291 419.4538683747776 -678.6478591557545  -2802.501287524645 2301.23893100296 675.8435335624206  -3460.541838155726 -2648.867754130762 -603.3308683908214  -3621.430792425267 -3941.966967190025 -389.9259457638368  -3049.027643070739 4437.321764211612 378.1598985866513  -1557.794612768509 -5760.754812526688 52.3290653364046  -2950.925901584187 387.2218300581636 733.2546387151531  -4360.878286842543 -559.6703505757357 588.6167063740334  -2090.546843256715 -3952.223680840044 -565.3283931978294  -2096.599148121787 -5038.48997561979 -349.1976056093445  -1801.348415385905 -2502.685383580139 -717.7475300008047  3134.010851768296 5139.187938334967 -31.14161660676847  -4214.912927713659 -4233.305508741057 144.4443029971788  -5076.739658638522 -2860.554056251476 262.8682688910153  1106.426373312755 5174.74531755622 386.4544008481332  -399.9580891713851 4666.473357775873 517.8041372965  -138.4982677327864 3519.313459161747 690.5875887480181  -1674.372774115049 1485.905296926981 785.3874047259453  -2792.452293068824 -3227.84041981986 597.2264110976628  1457.184784897973 3929.384166802035 -596.6156759728893  -3464.330718446668 -4765.686592657245 -177.0813067192482  -457.1888939948862 3015.078772950363 -734.7504684707861  -1013.805610506261 1290.467289692188 -801.767180264689  -687.3090711380352 5569.71853456898 285.5797417798657  -1306.310105429437 -916.5310592688688 805.8803040592486  -446.6447068502158 -4886.531382849206 -474.6047493351056  -2821.961673970081 -1471.286804676344 728.7309280874873  -4349.542092916004 -2367.720465535687 487.3610271410229  -5417.440792159216 -1137.663858403821 379.970865811396  -5930.192758894322 -1477.20431404894 117.506178482048  -6154.557609877884 -191.1507454114756 -70.00992257231675  -2373.835116462446 2561.722579743064 -686.9349407425947  -3599.999290522904 2831.084460213284 -555.5202013060149  -526.7134856237271 -5612.630676070172 -266.8082733613845  -209.4896861619977 4409.577932801079 -578.4840800305168  2464.477970624342 5242.137162113357 221.5609455665887  5327.257968339202 -1549.430756459154 375.195336537521  309.5533247644503 -1689.39867423828 -813.2693994725544  977.0796598492888 -5816.903958161723 -126.8324856101152  -1881.18847465123 3810.561899747107 592.6987330849757  5906.953373513517 1500.316934685409 -123.5807621426212  3947.529608766264 4323.011783415112 214.9828822221467  4658.803843733259 3918.132063349898 -20.26865855962517  -4718.335425116749 -3544.530884625465 -214.2808020111612  -2045.851242866301 5605.793080318826 66.74215093898333  -3435.356137714318 4838.673162871798 155.9259963242495  -334.8258386711595 -3646.06958920742 -663.4421205198938  -1440.913838246836 -664.9710786379925 -804.5129557641073  -3038.43065811373 -1067.56805004228 -733.0376278712122  1427.757110959868 5793.552686030982 -41.83818232595748  165.60962949056 -5925.785613638984 91.44898551566527  3411.900757998405 -3768.434392640888 456.9242228360403  5917.46862644614 1518.95133377034 113.8134941582565  2703.949606270979 -1598.444945844573 727.3095508248416  -5226.888221367599 -3178.234993190412 21.56818467062326  -1107.674975150795 -3937.513462230284 625.8862351032637  3011.415832779221 2885.982605983578 -610.0228167189531  -5294.347072556875 476.0944885943869 424.950990254917  1386.891290061122 -4441.144314494192 -530.3863160734022  1514.574850251937 2864.721828116437 709.002180104561  880.8129876845788 5770.008934818343 176.4554228832774  -3843.230112663641 3737.787061279816 -382.8874616056547  5166.656636636807 -2873.186697994438 -225.4392263758177  -95.82860299168529 1550.892826182123 815.3061052754357  4681.485605741 -2798.736621527788 377.1613927248978  -6001.420967402087 1421.594166244416 -17.19999118528655  -3195.398610131645 -5105.053516994969 7.56123300374331  -1952.791075356704 -5577.996267312819 -140.118315208708  5545.837803924137 2634.193836226691 -12.31946603914711  -1379.803608964863 2941.24544268343 709.0721509853897  1717.918223228846 2666.997102373439 -711.4325807987162  -2081.234691368985 440.0007992973526 -784.3039800455142  -2258.694564620017 5217.952591386615 272.387819731925  5254.265534827611 -2672.488225614654 230.2087703033697  -420.8695525233151 -5921.872591961963 -92.07771978313652  -3961.809818062849 1549.830135654768 -591.8520632918912  -2708.972973943417 1318.291819164645 -727.2460150834928  -1727.026441024418 4796.654089111135 441.8010302633115  -4345.348043983985 -4226.346463167316 -50.31200115075838  0.4722460090630411 2.212203766028737 -3.638812050109124  -1968.96387917916 -2332.064196098993 19.14599856870914  2975.989968022331 909.686580439433 -7.533273228081688  -1184.804761006178 2450.304723458543 170.3415753108552  2218.835498174221 -1737.29112342265 160.4319515654757  -1446.844631781682 253.5045379318337 -355.074663027565  -3062.733679187011 462.6669082435486 -3.39049294469401  584.8979658082169 2770.723783804434 -143.4089401266206  2067.977439628363 -1365.594403677073 -246.215627787976  -1608.896155302279 -258.608870598552 346.2427306122625  1542.030029831112 2061.345053573511 266.1359527352538  -569.5330426529699 -2355.009057620364 -312.6090899084041  509.5183328575407 -3401.866250100804 4.675527912645777  1227.906425096081 901.8144939768139 -385.3439858136692  -485.02428
[...]
<PointData  Vectors="Velocity"> 
<DataArray  type="Float64"  Name="Velocity"  NumberOfComponents="3" format="ascii">-6.4260262708494781e-06 -2.0613624567376904e-06 -3.3685748783508773e-04  -4.0863782391223513e-06 -8.9350062250942015e-07 3.3583245537687867e-04  4.1992848722065452e-04 4.2329481052537161e-07 3.1450508387803112e-04  7.9426960819583853e-04 1.7360248833378890e-06 2.8540078307343807e-04  1.1017692500362346e-03 -9.7023039160684200e-07 1.5160800834803241e-04  1.2903649019562402e-03 2.5460243486186441e-06 9.8389833164134970e-05  1.3528419402620388e-03 -2.5769659615706755e-06 2.0922954073390133e-05  1.2846876224824029e-03 -4.2337166209620070e-06 -8.6295829106833603e-05  1.1009330375261501e-03 -4.3363781197047615e-07 -1.6390701097034730e-04  7.9381852004864039e-04 2.9525697803850591e-07 -2.7742386615018326e-04  4.1739653843161678e-04 4.5850350139851391e-06 -3.0351190733652646e-04  5.3394206549788232e-04 -3.9516558309445591e-04 2.2312814425548135e-04  5.2604081428138296e-04 3.0307555017171112e-04 -2.9665241403969896e-04  1.2814610088277534e-03 -3.4793249985635944e-04 4.1812148539248405e-05  9.2905017855833744e-04 -3.8194755013381946e-04 -2.3534257590924926e-04  1.1783588740085799e-03 3.5378487887791771e-04 -1.3853595440394537e-04  1.1716467732318715e-03 3.5240367264104133e-04 1.4905539417078582e-04  5.9451223408192805e-04 3.5223150132265309e-04 2.6918724550754663e-04  2.0425589025959952e-04 -3.5362505617258318e-04 -2.6079869411987737e-04  9.1934848567534603e-04 -3.4800722857101509e-04 2.4289488967079814e-04  6.4015209611951562e-04 -6.8769862352120877e-04 2.3862512654593154e-04  9.4918929120233354e-04 -6.7006770326811203e-04 1.6391591760887614e-04  6.5309563234991019e-04 -9.6484190921603832e-04 1.3041263638591700e-04  9.1693260534718261e-04 -9.0257065422536214e-04 6.1992559236369560e-05  5.7906990282322079e-04 -1.1526879658091207e-03 6.2257990388912317e-05  8.1797488487962461e-04 -1.0244461948413235e-03 -3.3960710344251648e-05  4.2732281997322436e-04 -1.2257065914957046e-03 -3.5757546831870417e-05  6.3343740660090750e-04 -1.0784873355331409e-03 -8.2341437087175755e-05  2.2602831052418246e-04 -1.1971988699885465e-03 -1.1900430798168745e-04  4.0213572828348676e-04 -9.7943954839245203e-04 -1.5645559840977763e-04  -1.5525649483529002e-05 -1.0444914176796264e-03 -1.8893119132094309e-04  9.5983628102522625e-04 -8.3312041047800165e-04 -9.8249102982640564e-05  9.1446835224045565e-04 3.4627537763421784e-04 -2.5408186793793888e-04  9.3447552218448309e-04 6.7631453767981432e-04 -1.5363265560511312e-04  1.1373322683325077e-03 6.5551902924980377e-04 -8.5774570864934529e-05  1.5069245514165994e-04 -7.7777761761551342e-04 -2.8017251917812527e-04  5.4833227776368847e-04 -6.8090543525189582e-04 -2.6749423136561683e-04  6.3563375821410937e-04 6.4379124960898106e-04 -2.5241527693502447e-04  6.1452953455857747e-04 9.4699805792173967e-04 -1.5298344713997005e-04  1.2788545319069105e-03 -3.4263568798032775e-04 -5.9244840253077502e-05  1.1323617405713398e-03 -7.0074906290058608e-04 -1.2339104871398419e-05  1.1723595249473558e-03 -3.5563172470472486e-04 1.5599875551874096e-04  2.0628902601682695e-04 3.4780593575979140e-04 3.3926738144839585e-04  9.0887280176805757e-04 3.4010247937231350e-04 2.4699638746265054e-04  9.2670977553610241e-04 6.7411567200247784e-04 1.6041141203070497e-04  2.7957837739043645e-04 -1.1700761455436704e-03 1.1937148247291646e-04  -1.9895452720278890e-04 -1.2004351190658398e-03 -1.3337520609220361e-04  2.7291210391170779e-04 -7.0812041582270625e-04 2.5401041674807891e-04  1.1220947058517908e-03 6.5848615376092403e-04 8.9082959826296797e-05  8.3576772714929646e-04 9.5084788606979046e-04 9.3209999189476257e-05  5.9601694172017211e-04 9.2201523503982700e-04 1.7686382587276365e-04  4.6535068487290628e-04 1.1519109841567655e-03 1.0374240578765949e-04  2.0926752318454274e-04 1.0772287170996708e-03 2.0317569998822097e-04  6.1510666639825169e-05 1.2479653465365065e-03 1.0118392011479896e-04  -2.1078076753371111e-04 1.1104046799497544e-03 1.5798057930347501e-04  -3.5077773731925993e-04 1.2254545857181272e-03 5.7228701699958523e-05  -6.2076905807571347e-04 1.0447629237885800e-03 1.2931454054016818e-04  -6.6403425844540275e-05 1.3020568157079875e-03 -1.4190681897642760e-05  -4.3183564853627686e-04 -1.0039908235798083e-03 -1.7435231329389177e-04  -6.0495900400514796e-04 -1.1205118611901362e-03 -7.4280754370926918e-05  -7.2528513207250310e-04 1.0864668821963374e-03 3.3485544305086187e-05  -9.5834877373609660e-04 8.5070517605491131e-04 8.9160487105130300e-05  -1.0308624705169299e-03 8.5698166530570586e-04 -1.9005905232283432e-05  -1.1959345737188290e-03 5.5604609278130427e-04 5.1909119420813814e-05  -1.2185053876400242e-03 5.3342295303060200e-04 -5.7592030368277541e-05  -1.0750165662131725e-03 5.3940573512031842e-04 1.2437602908448879e-04  -9.8054487204664114e-04 7.8984165897444576e-04 -1.0990625768656669e-04  -1.2750563644656177e-03 2.3592282094588441e-04 9.4657628695450895e-05  -1.1346053240585401e-03 4.4330249462880809e-04 -1.2018873298381440e-04  -1.0794585591161867e-03 1.5307208421716742e-04 1.7624394096781064e-04  -1.2149770247046612e-03 -1.6901292168726903e-04 1.2501348973541413e-04  -8.2931916616930316e-04 6.5239314016608211e-04 -2.2373466357087496e-04  -1.8400688203566731e-04 -5.3671231659887261e-04 -2.9950747785477492e-04  -8.1642028239547961e-04 -8.5691069386628193e-04 -1.4994057565855285e-04  -9.6427221063696627e-04 -2.2512059516878463e-04 2.5069960290978796e-04  -1.0504396283234441e-03 -5.3693551028426915e-04 1.7317504280723331e-04  -1.2945115553547053e-03 1.5201013277850537e-04 -8.3635588718295638e-05  -4.5323525900139777e-04 8.7359902362272386e-04 1.7836370016285316e-04  -9.2539853009582544e-04 2.8027838631455545e-04 -2.0073198014970502e-04  2.9050773087773568e-04 8.7696546788596386e-04 -2.3010585286254847e-04  -1.2482792403249788e-03 -4.3700731922268561e-04 4.9883056464141254e-05  -7.8352391882071585e-04 9.3758852292503465e-05 2.8054844594469213e-04  -6.1125015983231798e-04 5.0425910260186435e-04 -2.6926162359056880e-04  -7.6607191523558708e-04 -5.8283487974423195e-04 1.9057688501107774e-04  -7.9584992284593634e-04 -8.6168398896322492e-04 1.7275170611496209e-04  -6.6131740886244306e-04 9.6574785501851506e-04 -1.5223502166512710e-04  -3.4095244478176334e-04 -1.2603500670961697e-03 -2.6935857284273374e-05  -6.4220505331244893e-04 8.4293860260629605e-05 -3.0495474478218744e-04  -9.5071473346623151e-04 -1.2206565726012220e-04 -2.4203701494358347e-04  -4.6018695893849254e-04 -8.6105682579778759e-04 2.1368346778974400e-04  -4.5899567218245924e-04 -1.0977207201558652e-03 1.3554967446208256e-04  -3.9628018999792337e-04 -5.4520994528277713e-04 3.0463492659507034e-04  6.8586656208985473e-04 1.1229654277408367e-03 -1.3441250666585833e-05  -9.2302292733480802e-04 -9.2389464102179118e-04 -7.3710585622267392e-05  -1.1162988217081544e-03 -6.2862843536047532e-04 -9.7791665400919124e-05  2.4073942036478987e-04 1.1273497423781391e-03 -1.6672083359097750e-04  -8.8450140134388612e-05 1.0148913529689826e-03 -2.1719214253846454e-04  -3.0418878130145241e-05 7.7414717242492719e-04 -2.3520374959456130e-04  -3.6611210963440776e-04 3.2414925859264960e-04 -3.0157735931394424e-04  -6.1112116499753306e-04 -7.0492332353867002e-04 -2.3612034131545944e-04  3.1807502635925963e-04 8.5612909046445793e-04 2.5244756349570912e-04  -7.5754833825460958e-04 -1.0409720910053342e-03 9.3126305242152263e-05  -9.8452489247170634e-05 6.5889447872063966e-04 2.5208837442430729e-04  -2.2044776466517029e-04 2.7551989572139886e-04 3.4646310412082571e-04  -1.4883999198918730e-04 1.2099552611463682e-03 -1.1319245123771272e-04  -2.8689138015996888e-04 -2.0449234707362358e-04 -3.4228822630897227e-04  -9.7852822182528410e-05 -1.0624677853254699e-03 2.0209989980787021e-04  -6.1809873339051214e-04 -3.2367027809744803e-04 -2.5636919826277149e-04  -9.5007501528709894e-04 -5.1838480287526496e-04 -2.2324652312507404e-04  -1.1904817129966792e-03 -2.4786309323325474e-04 -1.2458242823283207e-04  -1.3106772274228073e-03 -3.2268076693724905e-04 -4.8664646449226398e-05  -1.3465875212195690e-03 -3.8703371532508465e-05 3.8595783826203480e-05  -5.1885769816891023e-04 5.5989120307901386e-04 2.7569586003150544e-04  -7.8587880715970577e-04 6.1178453904494050e-04 2.1842934207293253e-04  -1.1850831414199554e-04 -1.2208281292354359e-03 1.3517845962893871e-04  -4.3496941040069814e-05 9.6933428940737467e-04 1.8779575283859207e-04  5.3836690832108618e-04 1.1388361226831133e-03 -8.1186212590839292e-05  1.1652687896668539e-03 -3.4007295701530638e-04 -1.1877139126344060e-04  6.9653789856124034e-05 -3.6963931162407133e-04 2.9719191108678922e-04  2.1365111915561314e-04 -1.2665148208853465e-03 5.9680681535674302e-05  -4.0853853333225028e-04 8.3322590408720283e-04 -2.4168779786803204e-04  1.2875524934693784e-03 3.2601585405848640e-04 6.2313772342199254e-05  8.5895030209307954e-04 9.3827997380466351e-04 -9.0481336826868280e-05  1.0193998032908234e-03 8.5066691069741779e-04 -2.8975032374734051e-05  -1.0300508465747999e-03 -7.7224092947056019e-04 7.9581173624415473e-05  -4.4140173769064838e-04 1.2144554955886560e-03 -2.2175694803910577e-05  -7.5002007693136829e-04 1.0606086808414685e-03 -5.4879309034440847e-05  -7.2236955873828214e-05 -7.9408779604621968e-04 2.6638253655610707e-04  -3.1688560356364040e-04 -1.4328238968684852e-04 3.4856031040263245e-04  -6.7025324383826912e-04 -2.3098714612627700e-04 2.3623654773995769e-04  3.1192587192361936e-04 1.2585647734705224e-03 2.0455362433706019e-05  3.1089167234550684e-05 -1.2930552788527252e-03 -4.3144495077441295e-05  7.4267000403954264e-04 -8.2184736472032784e-04 -1.8423630917380288e-04  1.2899864260622765e-03 3.2844343141653660e-04 -4.2606142695471926e-05  5.9236992000958016e-04 -3.5048390694422432e-04 -2.7200570160379803e-04  -1.1406207894445110e-03 -6.9134502248885193e-04 -5.7331920704257186e-06  -2.4619983832115209e-04 -8.6553104425695032e-04 -2.0709323932421175e-04  6.5840699790170316e-04 6.2732221505909828e-04 2.4791496720611838e-04  -1.1537592493431506e-03 1.0603900752904398e-04 -1.8211515246695201e-04  3.0122943470879102e-04 -9.6791404411402889e-04 2.0561507297211395e-04  3.3299081388554980e-04 6.2655116476556484e-04 -2.8059765720534651e-04  1.9359920016034622e-04 1.2603310843893173e-03 -7.1043207121429034e-05  -8.3763206133995053e-04 8.1182051974170377e-04 1.9420357418385056e-04  1.1228320158142568e-03 -6.2189683139609003e-04 7.0224408919718288e-05  -2.4480627932828092e-05 3.3721673409378456e-04 -3.1355956024838082e-04  1.0224056908398373e-03 -6.1257582884110596e-04 -1.6691495045918834e-04  -1.3130155453002217e-03 3.1065799025666106e-04 1.3694958190320756e-05  -7.0061235492371106e-04 -1.1112450573499593e-03 -4.8990188023121683e-06  -4.3218717746917954e-04 -1.2312555950009226e-03 5.2983862131033614e-05  1.2152797915105393e-03 5.7258441698806138e-04 -1.7616453306230059e-05  -3.0224920418926715e-04 6.4961180986124537e-04 -2.7705552155601833e-04  3.7911129621607273e-04 5.7748608112803831e-04 2.9642278762040538e-04  -4.4778955384409741e-04 1.0131182264173450e-04 3.3048135919129729e-04  -4.9063043276417870e-04 1.1366102890058287e-03 -9.0137933058286051e-05  1.1406890891591181e-03 -5.7904909278326110e-04 -9.5623407556856294e-05  -9.1879214381207372e-05 -1.2951811570013903e-03 9.8680342868481623e-06  -8.6028998308367217e-04 3.3623420307125879e-04 2.8935041141106869e-04  -5.9208419710911364e-04 2.8933496999955852e-04 3.0891974291129672e-04  -3.7364237925232929e-04 1.0413356935752565e-03 -1.7244850962036605e-04  -9.4810675117652310e-04 -9.1702069384108913e-04 8.8088571079921593e-06  1.4345700814318415e-06 6.8475830734308317e-06 -1.1218990339156432e-05  -4.2510796632697567e-04 -5.0385393964430774e-04 -2.2007062047487510e-05  6.3856350209497842e-04 1.9718365261314809e-04 -9.7827471891250783e-06  -2.5201623066945780e-04 5.2692742895661584e-04 -1.1984653054420726e-04  4.7772426624503639e-04 -3.7443050072755472e-04 -9.2293881409881041e-05  -3.1528126403031903e-04 5.2470687773521082e-05 2.0922986068705896e-04  -6.6261684958131804e-04 9.9542145595919818e-05 -1.1457991858073581e-05  1.2593104803671872e-04 5.9319866059633606e-04 1.1808617235902105e-04  4.4557812408679972e-04 -2.9302792378253675e-04 1.1820184015790526e-04  -3.4763700890020049e-04 -5.2907564844079678e-05 -1.9709139067137127e-04  3.3097430396028277e-04 4.4049660136758980e-04 -1.9913697740252359e-04  -1.2264387099570760e-04 -5.1070359779583816e-04 1.4387509510430357e-04  1.0972980561523012e-04 -7.3951441593258854e-04 9.0618751303721098e-06  2.6389735758006525e-04 1.9149486553420334e-04 2.6372645088120405e-04  -1.0440323156968843e-04 -5.7590444787346360e-04 -1.6627727510483198e-04  2.3447132858922748e-04 -6.4619023862073707e-05 -2.5476594360316127e-04  -4.5197724171150866e-04 5.6176069546862747e-04 7.8409557269805592e-05  -6.6344508269631814e-04 -2.6386038367694870e-04 9.1366415852511408e-05  6.7728863492651844e-04 3.4204611267581446e-05 -1.6704270014383527e-04  -9.0269382422314247e-05 3.4458407013654142e-04 -2.6387428962005872e-04  1.3768738703446944e-04 7.8011797633700613e-04 -9.7390441121320787e-05  5.7138371607416813e-04 4.5974899766037614e-04 1.5807970854489169e-04  5.7533694786974219e-04 6.4967624198444818e-04 -9.7007641257655057e-07  -6.5558459456736547e-04 2.9616881036886633e-04 -1.8233600113384514e-04  8.0148774338899796e-04 -2.4304986158209387e-04 1.8725846328663453e-05  -1.6275422551664500e-04 5.1304904879418030e-04 2.3329832977988363e-04  -7.7600898445559215e-04 -2.6938187390526338e-04 -1.0960091541531799e-04  7.6062366491741387e-04 4.3940044081430803e-05 1.4763897468533294e-04  5.5845961670733697e-04 -6.3722311143936741e-04 3.2080842328448709e-05  -7.2235386729090274e-04 2.3743850910715219e-04 1.5663864673339748e-04  1.6616200292802352e-04 -2.5327307084860914e-04 2.4205286537647022e-04  -2.6042715781188989e-04 -8.0530141382011405e-04 9.7695397662922264e-05  -2.5289757686150868e-04 -8.4645180216465091e-04 -9.4939431632757863e-05  2.9969258651955325e-04 -7.4741383144741043e-04 -1.3466823532364767e-04  -6.5579474704360700e-04 6.3791200180607853e-04 -2.9737431869447217e-05  2.5215056866351084e-04 -7.2861037773823466e-04 1.7320287321048706e-04  -1.7838804590155551e-04 8.5874742176398223e-04 2.5481276629923662e-05  -4.3943762415437715e-04 -3.2465063256508793e-04 2.5153902390276557e-04  7.5650523915639779e-04 4.1465826065148535e-04 -1.1922012426180638e-04  9.4157479492007826e-05 3.8774392284031422e-04 -9.7382130234428084e-05  2.8419267321514043e-04 2.0946954938115363e-04 1.2694294369159151e-04  </DataArray> 
</PointData> 
</Piece>
</UnstructuredGrid>
</VTKFile>