<?xml version="1.0"?>
<VTKFile type="UnstructuredGrid"  version="0.1"  >
<UnstructuredGrid>
<Piece  NumberOfPoints="201" NumberOfCells="657">
<Points>
<DataArray  type="Float64"  NumberOfComponents="3"  format="ascii">-2.089608793250199 -0.6817244332059194 840.6378897189546  -1.339118556611848 -0.2988565275297299 -840.9834591467783  1910.744098756804 0.155060049559811 -801.351825945968  3632.998089655075 0.6041692292336612 -675.9384205589454  5003.148127656849 -0.2690644623623173 -509.0215001448238  5880.057727938643 0.8918172016366449 -261.7089450230409  6181.347545944755 -0.7831977893063855 6.780719988907729  5878.158230446199 -1.328288622871846 265.5946751047952  5002.900868454128 -0.09144794935035433 505.0863875047452  3632.844862509614 0.1285870726570549 678.4056728304586  1909.929699695981 1.504081901535109 804.8835766047184  2421.393772235443 -1799.002125733722 -753.3999865119783  2404.149010662164 1396.177351418902 750.1021350655278  5881.678383535588 -1600.167030746445 -127.283219473014  4236.84067983931 -1746.88900572023 556.9427864989066  5353.804612808434 1619.148378189549 354.375584264399  5330.98334028771 1618.688026011095 -358.0305825069442  2703.187353744085 1609.80742580224 -727.6645616773063  931.2899462100753 -1610.25019883957 818.8855130796733  4208.212037453925 -1608.382269321472 -568.1072163593757  2929.351199034601 -3157.359351400188 -591.1630761407932  4351.764351144844 -3093.337671427058 -407.0966687542409  2984.711211814016 -4424.202620172483 -399.7764450653446  4204.411234388845 -4151.150944460134 -197.6986816990715  2639.388363850411 -5268.616258780542 -164.795401331659  3756.020479294205 -4725.017004393195 35.77071846577312  1972.185149124928 -5627.063017391794 72.8419213479245  2865.040911355871 -4893.115552587788 293.59938630587  1031.408606774466 -5479.395665818751 301.9710507526161  1832.425742001026 -4470.37711379455 511.6462937029135  -71.10583832409901 -4799.54614970564 502.4698374121732  4389.87824778778 -3839.251062462949 238.3136290865631  4206.555708421779 1607.869255135178 564.3140806774751  4264.770497582119 3114.407162631853 426.1321541550481  5166.673140688843 2986.832505538323 187.681705853653  685.5743660070506 -3566.758266784429 663.2923560448879  2509.268585384261 -3127.334004837787 624.2532722558421  2927.5092823157 2975.781290685812 607.1416702200939  2821.536290854915 4354.903886902282 432.9131881630124  5891.309816021866 -1562.211656664429 121.5919425801526  5195.830558587879 -3225.981604547795 12.27586851582407  5362.91247143021 -1621.002880728077 -344.879437923028  931.9116496057768 1608.331467723362 -793.3579649855395  4165.833781889297 1568.365381811304 -575.5160071712155  4231.951774412188 3098.133116351069 -433.5667043517516  1280.435744227952 -5318.681547927357 -344.7606719511366  -896.7895155164628 -5540.924210806347 279.1215113170783  1249.662843230166 -3239.324248794024 -691.8930996819631  5128.87605131566 3020.827901006417 -193.7539327315792  3834.300429918493 4363.887131221989 -237.8242539854101  2723.382620952461 4245.999786881114 -461.8075244996245  2148.395011309472 5289.00306142752 -255.3066222809557  950.3292083335737 4965.027919352171 -439.4209051357774  278.2375609561845 5726.260650067856 -229.3973736691397  -973.0750453600798 5109.102096698177 -415.2573522864705  -1606.597149988865 5623.77977618898 -179.2692556538395  -2832.211743654659 4802.322792588913 -315.57974756748  -308.7107167935325 5957.184716450498 12.90877812507264  -1974.06248341547 -4613.901025557603 463.3244080618001  -2729.519781816415 -5105.688485130411 233.1985430259013  -3324.219149253537 4990.80181958434 -85.73706481342816  -4391.187664716323 3904.151695054732 -216.1809128283122  -4680.767231506635 3898.151811857186 15.77548377995827  -5486.377641109571 2568.836515166584 -136.4590681192444  -5563.596925849512 2440.163112401914 124.3014439853663  -4878.078358133793 2438.835156141639 -395.9896072729038  -4497.660084222858 3606.120700822955 271.9604781770379  -5807.448125025574 1066.6260497822 -247.7142931862741  -5142.606079805305 2007.519966214867 381.2076481470986  -4941.38109992702 685.2258840441073 -502.5946447910554  -5549.801955039849 -774.0363096389608 -359.164233276509  -3820.907707520293 3021.018201259853 497.7915227628541  -852.8493445050804 -2470.632615705074 757.3980712312011  -3724.539649977067 -3945.285201496537 375.3059469167277  -4438.517313998568 -1047.264110339948 -558.1265628037783  -4798.048831141447 -2460.728652606118 -396.6865732121928  -5937.492780371569 677.6257221562053 212.9965509642354  -2066.748673763424 3979.893929744047 -574.7245840866944  -4228.789386275515 1290.521748624703 596.4827516169713  1329.18655510548 4019.695397498442 596.7499558725908  -5721.163231756129 -2014.892655457349 -144.8305357336804  -3596.795924854291 419.4538683747776 -678.6478591557545  -2802.501287524645 2301.23893100296 675.8435335624206  -3460.541838155726 -2648.867754130762 -603.3308683908214  -3621.430792425267 -3941.966967190025 -389.9259457638368  -3049.027643070739 4437.321764211612 378.1598985866513  -1557.794612768509 -5760.754812526688 52.3290653364046  -2950.925901584187 387.2218300581636 733.2546387151531  -4360.878286842543 -559.6703505757357 588.6167063740334  -2090.546843256715 -3952.223680840044 -565.3283931978294  -2096.599148121787 -5038.48997561979 -349.1976056093445  -1801.348415385905 -2502.685383580139 -717.7475300008047  3134.010851768296 5139.187938334967 -31.14161660676847  -4214.912927713659 -4233.305508741057 144.4443029971788  -5076.739658638522 -2860.554056251476 262.8682688910153  1106.426373312755 5174.74531755622 386.4544008481332  -399.9580891713851 4666.473357775873 517.8041372965  -138.4982677327864 3519.313459161747 690.5875887480181  -1674.372774115049 1485.905296926981 785.3874047259453  -2792.452293068824 -3227.84041981986 597.2264110976628  1457.184784897973 3929.384166802035 -596.6156759728893  -3464.330718446668 -4765.686592657245 -177.0813067192482  -457.1888939948862 3015.078772950363 -734.7504684707861  -1013.805610506261 1290.467289692188 -801.767180264689  -687.3090711380352 5569.71853456898 285.5797417798657  -1306.310105429437 -916.5310592688688 805.8803040592486  -446.6447068502158 -4886.531382849206 -474.6047493351056  -2821.961673970081 -1471.286804676344 728.7309280874873  -4349.542092916004 -2367.720465535687 487.3610271410229  -5417.440792159216 -1137.663858403821 379.970865811396  -5930.192758894322 -1477.20431404894 117.506178482048  -6154.557609877884 -191.1507454114756 -70.00992257231675  -2373.835116462446 2561.722579743064 -686.9349407425947  -3599.999290522904 2831.084460213284 -555.5202013060149  -526.7134856237271 -5612.630676070172 -266.8082733613845  -209.4896861619977 4409.577932801079 -578.4840800305168  2464.477970624342 5242.137162113357 221.5609455665887  5327.257968339202 -1549.430756459154 375.195336537521  309.5533247644503 -1689.39867423828 -813.2693994725544  977.0796598492888 -5816.903958161723 -126.8324856101152  -1881.18847465123 3810.561899747107 592.6987330849757  5906.953373513517 1500.316934685409 -123.5807621426212  3947.529608766264 4323.011783415112 214.9828822221467  4658.803843733259 3918.132063349898 -20.26865855962517  -4718.335425116749 -3544.530884625465 -214.2808020111612  -2045.851242866301 5605.793080318826 66.74215093898333  -3435.356137714318 4838.673162871798 155.9259963242495  -334.8258386711595 -3646.06958920742 -663.4421205198938  -1440.913838246836 -664.9710786379925 -804.5129557641073  -3038.43065811373 -1067.56805004228 -733.0376278712122  1427.757110959868 5793.552686030982 -41.83818232595748  165.60962949056 -5925.785613638984 91.44898551566527  3411.900757998405 -3768.434392640888 456.9242228360403  5917.46862644614 1518.95133377034 113.8134941582565  2703.949606270979 -1598.444945844573 727.3095508248416  -5226.888221367599 -3178.234993190412 21.56818467062326  -1107.674975150795 -3937.513462230284 625.8862351032637  3011.415832779221 2885.982605983578 -610.0228167189531  -5294.347072556875 476.0944885943869 424.950990254917  1386.891290061122 -4441.144314494192 -530.3863160734022  1514.574850251937 2864.721828116437 709.002180104561  880.8129876845788 5770.008934818343 176.4554228832774  -3843.230112663641 3737.787061279816 -382.8874616056547  5166.656636636807 -2873.186697994438 -225.4392263758177  -95.82860299168529 1550.892826182123 815.3061052754357  4681.485605741 -2798.736621527788 377.1613927248978  -6001.420967402087 1421.594166244416 -17.19999118528655  -3195.398610131645 -5105.053516994969 7.56123300374331  -1952.791075356704 -5577.996267312819 -140.118315208708  5545.837803924137 2634.193836226691 -12.31946603914711  -1379.803608964863 2941.24544268343 709.0721509853897  1717.918223228846 2666.997102373439 -711.4325807987162  -2081.234691368985 440.0007992973526 -784.3039800455142  -2258.694564620017 5217.952591386615 272.387819731925  5254.265534827611 -2672.488225614654 230.2087703033697  -420.8695525233151 -5921.872591961963 -92.07771978313652  -3961.809818062849 1549.830135654768 -591.8520632918912  -2708.972973943417 1318.291819164645 -727.2460150834928  -1727.026441024418 4796.654089111135 441.8010302633115  -4345.348043983985 -4226.346463167316 -50.31200115075838  0.4722460090630411 2.212203766028737 -3.638812050109124  -1968.96387917916 -2332.064196098993 19.14599856870914  2975.989968022331 909.686580439433 -7.533273228081688  -1184.804761006178 2450.304723458543 170.3415753108552  2218.835498174221 -1737.29112342265 160.4319515654757  -1446.844631781682 253.5045379318337 -355.074663027565  -3062.733679187011 462.6669082435486 -3.39049294469401  584.8979658082169 2770.723783804434 -143.4089401266206  2067.977439628363 -1365.594403677073 -246.215627787976  -1608.896155302279 -258.608870598552 346.2427306122625  1542.030029831112 2061.345053573511 266.1359527352538  -569.5330426529699 -2355.009057620364 -312.6090899084041  509.5183328575407 -3401.866250100804 4.675527912645777  1227.906425096081 901.8144939768139 -385.3439858136692  -485.02428
[...]
<PointData  Scalars="Pressure"> 
<DataArray  type="Float64"  Name="Pressure"  format="ascii">4.1163822930765275e-03  4.6063007231223561e-03  1.7052450539936283e-03  4.4331250506609177e-03  -2.0274983088126497e-04  4.9235781656108363e-04  2.6486298575158882e-03  4.1137892493724130e-03  -1.6365010226226983e-04  2.4231119756004333e-03  1.0863976333031404e-03  -6.7416295694477555e-04  4.9500616409739505e-03  1.4607518682152906e-03  4.3186749925816174e-03  -2.4393546166576566e-05  4.0681690498490120e-04  3.8518537180366535e-04  1.5598157100869364e-04  3.4631141634755835e-03  3.6522954372132498e-03  5.5189716828454513e-03  6.5225519714515482e-04  1.0194086426253716e-03  1.3482565321150477e-03  2.2229486499158618e-03  2.6610086088667468e-03  -9.6897754489527711e-04  3.5107235709091762e-04  -9.7590333034167795e-06  2.3699228528297925e-03  3.5077567073647634e-03  4.0511949400572345e-03  5.9225764585008154e-04  -4.6563522089407814e-04  3.4969541467977983e-03  6.0696809575903222e-03  2.3591803137462605e-03  3.5530163669075091e-03  2.9449836334264458e-03  3.9977078168111947e-03  3.2423349112872175e-03  2.5387090436802167e-03  3.8274834703513469e-03  6.7948092626359479e-04  -3.8627280477132044e-04  1.7232889869006917e-03  1.8848789863996356e-03  3.7338186405910514e-03  1.7789270227833928e-03  1.8791928776142521e-03  3.5117840751179271e-03  3.8776936861286060e-03  1.7671592170774655e-03  4.3848845489967113e-03  9.7497827540358388e-04  2.1708691384856762e-03  6.5791425277699107e-04  2.0463071879015010e-03  -3.0278878150917933e-04  2.7488874957076921e-03  2.6065082133187294e-03  -1.8930458990447960e-04  4.5488117338917510e-03  2.3104742843289101e-03  -4.9093905395663758e-04  1.0208891977523556e-03  2.7872753743608212e-04  -7.8428124846888951e-04  8.8373832212720275e-04  6.3392407951340943e-04  3.5382512858927488e-03  6.8018148621607540e-03  4.8961513170194919e-03  3.5684175536862595e-03  1.8245513452314337e-03  4.1159498973418439e-03  -1.7822774715434490e-05  4.6573300646000904e-04  1.6607095469695988e-03  2.3475730352333648e-03  3.3356322504930975e-03  3.0236453876448703e-03  -8.3236965619817350e-04  3.0624303866298376e-03  3.4856211650093208e-03  2.2682975583173808e-04  4.3995631003051353e-03  4.4262917067080191e-03  1.4564317408388926e-03  9.2880874074671076e-04  9.5601861283841250e-04  7.6995950340806086e-04  2.6314723742424688e-03  3.0458828842197397e-04  2.3148058334424271e-03  5.9434601574531393e-03  -3.0315073207928751e-04  1.8105129272618644e-04  4.0328114502064059e-03  5.1295519311773900e-03  3.2933136368286744e-03  9.5655185181890755e-05  5.5792953743990905e-03  3.9332761954517115e-03  3.8640571411087659e-03  3.0713581882509779e-03  4.0011318184424442e-04  2.8226074860548287e-03  1.8553816729479194e-04  -7.6996423336589067e-04  4.7626302832094337e-03  3.3321340081327935e-03  3.0334890054753657e-03  1.5203008841263043e-03  -4.9059573163400948e-04  1.5779675397959198e-03  2.0186767852764819e-03  7.5757716550777757e-04  2.4756521532664296e-03  3.6608233310553321e-03  2.6084339400347109e-03  2.0686577761512984e-03  1.4261558405607153e-03  2.5869076608793099e-03  2.6934380930907073e-03  2.3663341542766691e-04  3.1505370254788266e-03  3.5471422490765464e-03  -2.5164284780001872e-04  4.4903165692707116e-03  1.3754281318487777e-03  2.2919199369515995e-03  2.1452376542788689e-03  6.2179361954654605e-04  4.9745925305978902e-03  -1.8066631900986337e-04  2.1526689195445884e-03  2.2544775886694825e-03  8.0338996562753415e-04  1.3934317670360812e-03  3.7091859025717650e-04  3.6900933871270290e-03  2.7298065611939069e-03  1.5491988390466623e-03  2.3891691626638650e-03  1.2967833692517910e-03  2.7687121077338986e-03  -1.1899817047572132e-03  2.2140161768024660e-03  5.4643527460514890e-04  2.6817410137898482e-03  3.0459516822284047e-03  3.6573162236533336e-03  4.0796902367409684e-03  8.8689230237858790e-04  3.6962026514090287e-03  1.0821879369767276e-03  1.8701402070323604e-03  1.6164506051911656e-03  1.5962796898703346e-01  1.1300453693332088e-01  1.1627653659527859e-01  1.1481735459559446e-01  1.1552200317606823e-01  1.1839511201439676e-01  1.1927458939006802e-01  1.1816100408734211e-01  1.1476125020266381e-01  1.2002161375470080e-01  1.1094068796213316e-01  1.0807725833116053e-01  1.0522417190357225e-01  1.1241182778417946e-01  1.0419116371829329e-01  1.1282385237514178e-01  1.0204176036861970e-01  9.9787018296953203e-02  9.7909420910587130e-02  9.9055736518442600e-02  9.1888898652228670e-02  9.1852550233864530e-02  8.5094821189402897e-02  9.3880301566808433e-02  9.0673977963212554e-02  9.1418803627603032e-02  8.9473804487119168e-02  8.8304479287841312e-02  8.5880324059838725e-02  8.8979262798762199e-02  9.4768261216775729e-02  8.4746691792162904e-02  7.9093185582069903e-02  8.2044573545620725e-02  7.6092733178171584e-02  8.5481588656071819e-02  7.9405781262775879e-02  8.2906131330546029e-02  7.7049970281457839e-02  1.4207949630127989e-01  1.4088250641044822e-01  </DataArray> 
</PointData> 
</Piece>
</UnstructuredGrid>
</VTKFile>