<?xml version="1.0"?>
<VTKFile type="UnstructuredGrid"  version="0.1"  >
<UnstructuredGrid>
<Piece  NumberOfPoints="201" NumberOfCells="657">
<Points>
<DataArray  type="Float64"  NumberOfComponents="3"  format="ascii">-2.089608793250199 -0.6817244332059194 840.6378897189546  -1.339118556611848 -0.2988565275297299 -840.9834591467783  1910.744098756804 0.155060049559811 -801.351825945968  3632.998089655075 0.6041692292336612 -675.9384205589454  5003.148127656849 -0.2690644623623173 -509.0215001448238  5880.057727938643 0.8918172016366449 -261.7089450230409  6181.347545944755 -0.7831977893063855 6.780719988907729  5878.158230446199 -1.328288622871846 265.5946751047952  5002.900868454128 -0.09144794935035433 505.0863875047452  3632.844862509614 0.1285870726570549 678.4056728304586  1909.929699695981 1.504081901535109 804.8835766047184  2421.393772235443 -1799.002125733722 -753.3999865119783  2404.149010662164 1396.177351418902 750.1021350655278  5881.678383535588 -1600.167030746445 -127.283219473014  4236.84067983931 -1746.88900572023 556.9427864989066  5353.804612808434 1619.148378189549 354.375584264399  5330.98334028771 1618.688026011095 -358.0305825069442  2703.187353744085 1609.80742580224 -727.6645616773063  931.2899462100753 -1610.25019883957 818.8855130796733  4208.212037453925 -1608.382269321472 -568.1072163593757  2929.351199034601 -3157.359351400188 -591.1630761407932  4351.764351144844 -3093.337671427058 -407.0966687542409  2984.711211814016 -4424.202620172483 -399.7764450653446  4204.411234388845 -4151.150944460134 -197.6986816990715  2639.388363850411 -5268.616258780542 -164.795401331659  3756.020479294205 -4725.017004393195 35.77071846577312  1972.185149124928 -5627.063017391794 72.8419213479245  2865.040911355871 -4893.115552587788 293.59938630587  1031.408606774466 -5479.395665818751 301.9710507526161  1832.425742001026 -4470.37711379455 511.6462937029135  -71.10583832409901 -4799.54614970564 502.4698374121732  4389.87824778778 -3839.251062462949 238.3136290865631  4206.555708421779 1607.869255135178 564.3140806774751  4264.770497582119 3114.407162631853 426.1321541550481  5166.673140688843 2986.832505538323 187.681705853653  685.5743660070506 -3566.758266784429 663.2923560448879  2509.268585384261 -3127.334004837787 624.2532722558421  2927.5092823157 2975.781290685812 607.1416702200939  2821.536290854915 4354.903886902282 432.9131881630124  5891.309816021866 -1562.211656664429 121.5919425801526  5195.830558587879 -3225.981604547795 12.27586851582407  5362.91247143021 -1621.002880728077 -344.879437923028  931.9116496057768 1608.331467723362 -793.3579649855395  4165.833781889297 1568.365381811304 -575.5160071712155  4231.951774412188 3098.133116351069 -433.5667043517516  1280.435744227952 -5318.681547927357 -344.7606719511366  -896.7895155164628 -5540.924210806347 279.1215113170783  1249.662843230166 -3239.324248794024 -691.8930996819631  5128.87605131566 3020.827901006417 -193.7539327315792  3834.300429918493 4363.887131221989 -237.8242539854101  2723.382620952461 4245.999786881114 -461.8075244996245  2148.395011309472 5289.00306142752 -255.3066222809557  950.3292083335737 4965.027919352171 -439.4209051357774  278.2375609561845 5726.260650067856 -229.3973736691397  -973.0750453600798 5109.102096698177 -415.2573522864705  -1606.597149988865 5623.77977618898 -179.2692556538395  -2832.211743654659 4802.322792588913 -315.57974756748  -308.7107167935325 5957.184716450498 12.90877812507264  -1974.06248341547 -4613.901025557603 463.3244080618001  -2729.519781816415 -5105.688485130411 233.1985430259013  -3324.219149253537 4990.80181958434 -85.73706481342816  -4391.187664716323 3904.151695054732 -216.1809128283122  -4680.767231506635 3898.151811857186 15.77548377995827  -5486.377641109571 2568.836515166584 -136.4590681192444  -5563.596925849512 2440.163112401914 124.3014439853663  -4878.078358133793 2438.835156141639 -395.9896072729038  -4497.660084222858 3606.120700822955 271.9604781770379  -5807.448125025574 1066.6260497822 -247.7142931862741  -5142.606079805305 2007.519966214867 381.2076481470986  -4941.38109992702 685.2258840441073 -502.5946447910554  -5549.801955039849 -774.0363096389608 -359.164233276509  -3820.907707520293 3021.018201259853 497.7915227628541  -852.8493445050804 -2470.632615705074 757.3980712312011  -3724.539649977067 -3945.285201496537 375.3059469167277  -4438.517313998568 -1047.264110339948 -558.1265628037783  -4798.048831141447 -2460.728652606118 -396.6865732121928  -5937.492780371569 677.6257221562053 212.9965509642354  -2066.748673763424 3979.893929744047 -574.7245840866944  -4228.789386275515 1290.521748624703 596.4827516169713  1329.18655510548 4019.695397498442 596.7499558725908  -5721.163231756129 -2014.892655457349 -144.8305357336804  -3596.795924854291 419.4538683747776 -678.6478591557545  -2802.501287524645 2301.23893100296 675.8435335624206  -3460.541838155726 -2648.867754130762 -603.3308683908214  -3621.430792425267 -3941.966967190025 -389.9259457638368  -3049.027643070739 4437.321764211612 378.1598985866513  -1557.794612768509 -5760.754812526688 52.3290653364046  -2950.925901584187 387.2218300581636 733.2546387151531  -4360.878286842543 -559.6703505757357 588.6167063740334  -2090.546843256715 -3952.223680840044 -565.3283931978294  -2096.599148121787 -5038.48997561979 -349.1976056093445  -1801.348415385905 -2502.685383580139 -717.7475300008047  3134.010851768296 5139.187938334967 -31.14161660676847  -4214.912927713659 -4233.305508741057 144.4443029971788  -5076.739658638522 -2860.554056251476 262.8682688910153  1106.426373312755 5174.74531755622 386.4544008481332  -399.9580891713851 4666.473357775873 517.8041372965  -138.4982677327864 3519.313459161747 690.5875887480181  -1674.372774115049 1485.905296926981 785.3874047259453  -2792.452293068824 -3227.84041981986 597.2264110976628  1457.184784897973 3929.384166802035 -596.6156759728893  -3464.330718446668 -4765.686592657245 -177.0813067192482  -457.1888939948862 3015.078772950363 -734.7504684707861  -1013.805610506261 1290.467289692188 -801.767180264689  -687.3090711380352 5569.71853456898 285.5797417798657  -1306.310105429437 -916.5310592688688 805.8803040592486  -446.6447068502158 -4886.531382849206 -474.6047493351056  -2821.961673970081 -1471.286804676344 728.7309280874873  -4349.542092916004 -2367.720465535687 487.3610271410229  -5417.440792159216 -1137.663858403821 379.970865811396  -5930.192758894322 -1477.20431404894 117.506178482048  -6154.557609877884 -191.1507454114756 -70.00992257231675  -2373.835116462446 2561.722579743064 -686.9349407425947  -3599.999290522904 2831.084460213284 -555.5202013060149  -526.7134856237271 -5612.630676070172 -266.8082733613845  -209.4896861619977 4409.577932801079 -578.4840800305168  2464.477970624342 5242.137162113357 221.5609455665887  5327.257968339202 -1549.430756459154 375.195336537521  309.5533247644503 -1689.39867423828 -813.2693994725544  977.0796598492888 -5816.903958161723 -126.8324856101152  -1881.18847465123 3810.561899747107 592.6987330849757  5906.953373513517 1500.316934685409 -123.5807621426212  3947.529608766264 4323.011783415112 214.9828822221467  4658.803843733259 3918.132063349898 -20.26865855962517  -4718.335425116749 -3544.530884625465 -214.2808020111612  -2045.851242866301 5605.793080318826 66.74215093898333  -3435.356137714318 4838.673162871798 155.9259963242495  -334.8258386711595 -3646.06958920742 -663.4421205198938  -1440.913838246836 -664.9710786379925 -804.5129557641073  -3038.43065811373 -1067.56805004228 -733.0376278712122  1427.757110959868 5793.552686030982 -41.83818232595748  165.60962949056 -5925.785613638984 91.44898551566527  3411.900757998405 -3768.434392640888 456.9242228360403  5917.46862644614 1518.95133377034 113.8134941582565  2703.949606270979 -1598.444945844573 727.3095508248416  -5226.888221367599 -3178.234993190412 21.56818467062326  -1107.674975150795 -3937.513462230284 625.8862351032637  3011.415832779221 2885.982605983578 -610.0228167189531  -5294.347072556875 476.0944885943869 424.950990254917  1386.891290061122 -4441.144314494192 -530.3863160734022  1514.574850251937 2864.721828116437 709.002180104561  880.8129876845788 5770.008934818343 176.4554228832774  -3843.230112663641 3737.787061279816 -382.8874616056547  5166.656636636807 -2873.186697994438 -225.4392263758177  -95.82860299168529 1550.892826182123 815.3061052754357  4681.485605741 -2798.736621527788 377.1613927248978  -6001.420967402087 1421.594166244416 -17.19999118528655  -3195.398610131645 -5105.053516994969 7.56123300374331  -1952.791075356704 -5577.996267312819 -140.118315208708  5545.837803924137 2634.193836226691 -12.31946603914711  -1379.803608964863 2941.24544268343 709.0721509853897  1717.918223228846 2666.997102373439 -711.4325807987162  -2081.234691368985 440.0007992973526 -784.3039800455142  -2258.694564620017 5217.952591386615 272.387819731925  5254.265534827611 -2672.488225614654 230.2087703033697  -420.8695525233151 -5921.872591961963 -92.07771978313652  -3961.809818062849 1549.830135654768 -591.8520632918912  -2708.972973943417 1318.291819164645 -727.2460150834928  -1727.026441024418 4796.654089111135 441.8010302633115  -4345.348043983985 -4226.346463167316 -50.31200115075838  0.4722460090630411 2.212203766028737 -3.638812050109124  -1968.96387917916 -2332.064196098993 19.14599856870914  2975.989968022331 909.686580439433 -7.533273228081688  -1184.804761006178 2450.304723458543 170.3415753108552  2218.835498174221 -1737.29112342265 160.4319515654757  -1446.844631781682 253.5045379318337 -355.074663027565  -3062.733679187011 462.6669082435486 -3.39049294469401  584.8979658082169 2770.723783804434 -143.4089401266206  2067.977439628363 -1365.594403677073 -246.215627787976  -1608.896155302279 -258.608870598552 346.2427306122625  1542.030029831112 2061.345053573511 266.1359527352538  -569.5330426529699 -2355.009057620364 -312.6090899084041  509.5183328575407 -3401.866250100804 4.675527912645777  1227.906425096081 901.8144939768139 -385.3439858136692  -485.02428
[...]
<PointData  Vectors="Coriolis"> 
<DataArray  type="Float64"  Name="Coriolis"  NumberOfComponents="3" format="ascii">-4.5601699592868224e-10 1.4164381914416368e-09 0.0000000000000000e+00  -1.9819823838376316e-10 9.0157594157661929e-10 0.0000000000000000e+00  9.5462736052736204e-11 -9.2288947465439820e-08 0.0000000000000000e+00  3.8775419843730003e-10 -1.7455589943130245e-07 0.0000000000000000e+00  -2.0753089883672650e-10 -2.4213919928440209e-07 0.0000000000000000e+00  5.6974852988979585e-10 -2.8359157275026134e-07 0.0000000000000000e+00  -5.6038322000930822e-10 -2.9731609960332669e-07 0.0000000000000000e+00  -9.2637837726646687e-10 -2.8233407597598479e-07 0.0000000000000000e+00  -8.8931822284060791e-11 -2.4195685810205420e-07 0.0000000000000000e+00  6.9431444963389128e-11 -1.7445586448850851e-07 0.0000000000000000e+00  1.0125849537908180e-09 -9.1731545984223917e-08 0.0000000000000000e+00  -8.6843513378107898e-08 -1.1735092256493917e-07 0.0000000000000000e+00  6.6606534950027706e-08 -1.1560654325339016e-07 0.0000000000000000e+00  -7.6455914541238938e-08 -2.8162487147420736e-07 0.0000000000000000e+00  -8.3934641408387590e-08 -2.0418062185657480e-07 0.0000000000000000e+00  7.7756205463763351e-08 -2.5896835262490973e-07 0.0000000000000000e+00  7.7452273103677596e-08 -2.5749449233164008e-07 0.0000000000000000e+00  7.7412608937591133e-08 -1.3065671708818427e-07 0.0000000000000000e+00  -7.7718051580300467e-08 -4.4893145310405686e-08 0.0000000000000000e+00  -7.6473692067609238e-08 -2.0204804430546235e-07 0.0000000000000000e+00  -1.5113110547028181e-07 -1.4069206261827872e-07 0.0000000000000000e+00  -1.4724693088677134e-07 -2.0860347128894768e-07 0.0000000000000000e+00  -2.1203457310608428e-07 -1.4353663530466398e-07 0.0000000000000000e+00  -1.9835041445968798e-07 -2.0152146619375015e-07 0.0000000000000000e+00  -2.5332278269743732e-07 -1.2727222584631800e-07 0.0000000000000000e+00  -2.2513254023183872e-07 -1.7977294507636544e-07 0.0000000000000000e+00  -2.6936648922367139e-07 -9.3918877826963573e-08 0.0000000000000000e+00  -2.3702695859836083e-07 -1.3922701605615176e-07 0.0000000000000000e+00  -2.6310742053700077e-07 -4.9684224132897552e-08 0.0000000000000000e+00  -2.1524578704122191e-07 -8.8384342703061807e-08 0.0000000000000000e+00  -2.2954501616681238e-07 3.4036027675816376e-09 0.0000000000000000e+00  -1.8308178470165966e-07 -2.1094722238807137e-07 0.0000000000000000e+00  7.6099892668491801e-08 -2.0096420812966726e-07 0.0000000000000000e+00  1.4863099408639144e-07 -2.0536272701385923e-07 0.0000000000000000e+00  1.4407176966417492e-07 -2.4995377461177343e-07 0.0000000000000000e+00  -1.7093066814177206e-07 -3.3124375966188212e-08 0.0000000000000000e+00  -1.4963699817944237e-07 -1.2051235450945906e-07 0.0000000000000000e+00  1.4148189097499238e-07 -1.3968529006063487e-07 0.0000000000000000e+00  2.0811467135081029e-07 -1.3504487079825357e-07 0.0000000000000000e+00  -7.5294651061184993e-08 -2.8105010329253251e-07 0.0000000000000000e+00  -1.5399230255043555e-07 -2.4885988466677965e-07 0.0000000000000000e+00  -7.8150482162042958e-08 -2.5764978511704915e-07 0.0000000000000000e+00  7.6432492820580099e-08 -4.5336066126678037e-08 0.0000000000000000e+00  7.4746276713046094e-08 -1.9973793323782351e-07 0.0000000000000000e+00  1.4815017247725587e-07 -2.0365739161188638e-07 0.0000000000000000e+00  -2.5715120323788017e-07 -6.1451263933969815e-08 0.0000000000000000e+00  -2.6381254447273628e-07 4.3716468208106608e-08 0.0000000000000000e+00  -1.5562292635371459e-07 -5.9983565391966309e-08 0.0000000000000000e+00  1.4471597550993162e-07 -2.4659249036764313e-07 0.0000000000000000e+00  2.0896618893546876e-07 -1.8366576906633476e-07 0.0000000000000000e+00  2.0262616455021584e-07 -1.3098071928151922e-07 0.0000000000000000e+00  2.5314724419640965e-07 -1.0225702973559173e-07 0.0000000000000000e+00  2.3673410153028104e-07 -4.5985986302657228e-08 0.0000000000000000e+00  2.7425614594249606e-07 -1.3511416270993878e-08 0.0000000000000000e+00  2.4402304602942849e-07 4.6328252281234404e-08 0.0000000000000000e+00  2.6931012882176983e-07 7.7097176320183968e-08 0.0000000000000000e+00  2.2959541485901561e-07 1.3643358448237379e-07 0.0000000000000000e+00  2.8614631917927790e-07 1.4600524873064579e-08 0.0000000000000000e+00  -2.2064813890661634e-07 9.4896438185381636e-08 0.0000000000000000e+00  -2.4626233498498394e-07 1.3294833880221791e-07 0.0000000000000000e+00  2.3876006411512064e-07 1.5940037424843706e-07 0.0000000000000000e+00  1.8694388151035678e-07 2.1061536700681493e-07 0.0000000000000000e+00  1.8833068900256101e-07 2.2656052447918425e-07 0.0000000000000000e+00  1.2218573379320550e-07 2.6282782241442354e-07 0.0000000000000000e+00  1.1721887355689587e-07 2.6779326527693152e-07 0.0000000000000000e+00  1.1853920333030323e-07 2.3626282910726793e-07 0.0000000000000000e+00  1.7357076915291173e-07 2.1549059547941397e-07 0.0000000000000000e+00  5.1840423917823725e-08 2.8022490225955742e-07 0.0000000000000000e+00  9.7418441927272052e-08 2.4936307778415329e-07 0.0000000000000000e+00  3.3632517156741285e-08 2.3722356931346456e-07 0.0000000000000000e+00  -3.7153576821579925e-08 2.6700963952893784e-07 0.0000000000000000e+00  1.4336079267814063e-07 1.8225627154927314e-07 0.0000000000000000e+00  -1.1795287515347229e-07 4.0432360251198973e-08 0.0000000000000000e+00  -1.8832327044815249e-07 1.7941653430994198e-07 0.0000000000000000e+00  -4.9479324837081018e-08 2.1190837323399515e-07 0.0000000000000000e+00  -1.1800895762381936e-07 2.3084719646144415e-07 0.0000000000000000e+00  3.3398910403902881e-08 2.8448663063830696e-07 0.0000000000000000e+00  1.9198631466559678e-07 9.9612571026033504e-08 0.0000000000000000e+00  6.1586115256212829e-08 2.0337462409898683e-07 0.0000000000000000e+00  1.9272825640872260e-07 -6.3839078309507571e-08 0.0000000000000000e+00  -9.6047449396963222e-08 2.7432422038652680e-07 0.0000000000000000e+00  2.0599203645830528e-08 1.7219139915128101e-07 0.0000000000000000e+00  1.1081468629498254e-07 1.3433415684156752e-07 0.0000000000000000e+00  -1.2809967772008845e-07 1.6836221206968332e-07 0.0000000000000000e+00  -1.8937829781717417e-07 1.7489860769706922e-07 0.0000000000000000e+00  2.1222601723692159e-07 1.4533532313665172e-07 0.0000000000000000e+00  -2.7698394998335688e-07 7.4919043581284798e-08 0.0000000000000000e+00  1.8517800731358842e-08 1.4113239197777485e-07 0.0000000000000000e+00  -2.6834950658461995e-08 2.0893297746729284e-07 0.0000000000000000e+00  -1.8923400595052939e-07 1.0112926357651502e-07 0.0000000000000000e+00  -2.4124696835331902e-07 1.0086453979395357e-07 0.0000000000000000e+00  -1.1982191223433513e-07 8.7086712371735515e-08 0.0000000000000000e+00  2.4679509789008278e-07 -1.5072579156855576e-07 0.0000000000000000e+00  -2.0304863724579370e-07 2.0284360796393434e-07 0.0000000000000000e+00  -1.3816461087251128e-07 2.4532505322626864e-07 0.0000000000000000e+00  2.4775093766727947e-07 -5.2899351419377942e-08 0.0000000000000000e+00  2.2303411779005096e-07 1.9445009210604938e-08 0.0000000000000000e+00  1.7013581190746664e-07 6.6892867100436840e-09 0.0000000000000000e+00  7.1231149371643073e-08 8.0461987271173907e-08 0.0000000000000000e+00  -1.5492573983446041e-07 1.3429973302161381e-07 0.0000000000000000e+00  1.8814574854589088e-07 -6.9896944663856053e-08 0.0000000000000000e+00  -2.2877658413506278e-07 1.6647496717480211e-07 0.0000000000000000e+00  1.4479889598145738e-07 2.1638334956417762e-08 0.0000000000000000e+00  6.0540918884246909e-08 4.8447416739500874e-08 0.0000000000000000e+00  2.6590021588145192e-07 3.2716923075933777e-08 0.0000000000000000e+00  -4.4948472986707474e-08 6.3048358895510216e-08 0.0000000000000000e+00  -2.3349558072631566e-07 2.1496818662334550e-08 0.0000000000000000e+00  -7.1140173829834955e-08 1.3583554891498675e-07 0.0000000000000000e+00  -1.1393361799927732e-07 2.0879034885853041e-07 0.0000000000000000e+00  -5.4481376695439908e-08 2.6162860145743077e-07 0.0000000000000000e+00  -7.0927070086012344e-08 2.8805768195866792e-07 0.0000000000000000e+00  -8.5148501872384154e-09 2.9593426794040700e-07 0.0000000000000000e+00  1.2303932667684882e-07 1.1403046775574133e-07 0.0000000000000000e+00  1.3443359992289504e-07 1.7271034768137986e-07 0.0000000000000000e+00  -2.6829337059829730e-07 2.6037226728814524e-08 0.0000000000000000e+00  2.1303274980198756e-07 9.5626531963281664e-09 0.0000000000000000e+00  2.5027759197165938e-07 -1.1830936683748392e-07 0.0000000000000000e+00  -7.4731051397478452e-08 -2.5609080374147286e-07 0.0000000000000000e+00  -8.1234906920524016e-08 -1.5312695339527471e-08 0.0000000000000000e+00  -2.7832983559398505e-07 -4.6963401887639714e-08 0.0000000000000000e+00  1.8310991867520469e-07 8.9785875811467401e-08 0.0000000000000000e+00  7.1653022183703447e-08 -2.8295622386455631e-07 0.0000000000000000e+00  2.0620599462410345e-07 -1.8876440624444722e-07 0.0000000000000000e+00  1.8694938002074367e-07 -2.2402659911567902e-07 0.0000000000000000e+00  -1.6971900034892719e-07 2.2636147181856413e-07 0.0000000000000000e+00  2.6688952792951835e-07 9.7010345346944775e-08 0.0000000000000000e+00  2.3308483575617189e-07 1.6483709761550479e-07 0.0000000000000000e+00  -1.7451365823854621e-07 1.5868166584096020e-08 0.0000000000000000e+00  -3.1490113305751272e-08 6.9640466169454781e-08 0.0000000000000000e+00  -5.0767215101998291e-08 1.4730249102143392e-07 0.0000000000000000e+00  2.7658000409649063e-07 -6.8542376894472106e-08 0.0000000000000000e+00  -2.8416549618666494e-07 -6.8380893750232708e-09 0.0000000000000000e+00  -1.8061002890711582e-07 -1.6321916315881186e-07 0.0000000000000000e+00  7.2186093539938759e-08 -2.8349298215914767e-07 0.0000000000000000e+00  -7.7024422430864482e-08 -1.3019008664835218e-07 0.0000000000000000e+00  -1.5194134057369310e-07 2.5066184443149173e-07 0.0000000000000000e+00  -1.9022134419587152e-07 5.4102312129111489e-08 0.0000000000000000e+00  1.3786440528989219e-07 -1.4469245954910105e-07 0.0000000000000000e+00  2.3295393152712553e-08 2.5355678650561767e-07 0.0000000000000000e+00  -2.1271314537543608e-07 -6.6206526363581620e-08 0.0000000000000000e+00  1.3769593987804262e-07 -7.3178933904130053e-08 0.0000000000000000e+00  2.7697649178720395e-07 -4.2539909813420268e-08 0.0000000000000000e+00  1.7840030398989304e-07 1.8408895287337542e-07 0.0000000000000000e+00  -1.3666051252561201e-07 -2.4676015009975833e-07 0.0000000000000000e+00  7.4105339047781803e-08 5.3839397057225796e-09 0.0000000000000000e+00  -1.3461986636443684e-07 -2.2469654188037292e-07 0.0000000000000000e+00  6.8260805326284369e-08 2.8856068358904315e-07 0.0000000000000000e+00  -2.4421518158909727e-07 1.5396241713427538e-07 0.0000000000000000e+00  -2.7060201296550500e-07 9.4974327885994301e-08 0.0000000000000000e+00  1.2583766525564250e-07 -2.6707536527800834e-07 0.0000000000000000e+00  1.4276455323516691e-07 6.6428857767180123e-08 0.0000000000000000e+00  1.2690913622076805e-07 -8.3317178393052842e-08 0.0000000000000000e+00  2.2265483981744216e-08 9.8403166833243348e-08 0.0000000000000000e+00  2.4977844729389516e-07 1.0782756939910957e-07 0.0000000000000000e+00  -1.2724614370808504e-07 -2.5068551997211422e-07 0.0000000000000000e+00  -2.8463321225478474e-07 2.0181298627585510e-08 0.0000000000000000e+00  7.3881686744388951e-08 1.8905831128283766e-07 0.0000000000000000e+00  6.3580407115953210e-08 1.3011997906808856e-07 0.0000000000000000e+00  2.2884067411887254e-07 8.2117451130610973e-08 0.0000000000000000e+00  -2.0153241906193761e-07 2.0835255284780926e-07 0.0000000000000000e+00  1.5079088235378067e-09 -3.1706083548764798e-10 0.0000000000000000e+00  -1.1072956053653665e-07 9.3415083195239708e-08 0.0000000000000000e+00  4.3335493759184506e-08 -1.4032482214276544e-07 0.0000000000000000e+00  1.1579003469418572e-07 5.5381491108115410e-08 0.0000000000000000e+00  -8.2281116023458754e-08 -1.0498566460838391e-07 0.0000000000000000e+00  1.1524728985919212e-08 6.9286705739963780e-08 0.0000000000000000e+00  2.1867941486507103e-08 1.4561440907702785e-07 0.0000000000000000e+00  1.3035391715610928e-07 -2.7670491309634313e-08 0.0000000000000000e+00  -6.4391299135277577e-08 -9.7920673904217133e-08 0.0000000000000000e+00  -1.1628901803991075e-08 7.6394226089345209e-08 0.0000000000000000e+00  9.6798466479353111e-08 -7.2729571860911710e-08 0.0000000000000000e+00  -1.1223399828532422e-07 2.6946424757024974e-08 0.0000000000000000e+00  -1.6251739320659173e-07 -2.4119709176637197e-08 0.0000000000000000e+00  4.2079543601890972e-08 -5.7991695957296493e-08 0.0000000000000000e+00  -1.2656444019917509e-07 2.2938080961100699e-08 0.0000000000000000e+00  -1.4197066696093876e-08 -5.1530093017561645e-08 0.0000000000000000e+00  1.2344704232201943e-07 9.9328979351326084e-08 0.0000000000000000e+00  -5.7989109705090120e-08 1.4579396703489890e-07 0.0000000000000000e+00  7.5202472983409420e-09 -1.4884166728656291e-07 0.0000000000000000e+00  7.5720441038795278e-08 1.9838919625946122e-08 0.0000000000000000e+00  1.7143030880990561e-07 -3.0252473079415970e-08 0.0000000000000000e+00  1.0103073943748364e-07 -1.2556245818469902e-07 0.0000000000000000e+00  1.4277031849099362e-07 -1.2643335160774316e-07 0.0000000000000000e+00  6.5079028204162646e-08 1.4406983539172627e-07 0.0000000000000000e+00  -5.3406775880189676e-08 -1.7613208422696083e-07 0.0000000000000000e+00  1.1274034610085836e-07 3.5770278829312751e-08 0.0000000000000000e+00  -5.9204586273161641e-08 1.7053030337742244e-07 0.0000000000000000e+00  9.6576882916438622e-09 -1.6715494320943024e-07 0.0000000000000000e+00  -1.4002863789267291e-07 -1.2272861951742255e-07 0.0000000000000000e+00  5.2171683522468842e-08 1.5874279440247583e-07 0.0000000000000000e+00  -5.5660108914722300e-08 -3.6518017545137830e-08 0.0000000000000000e+00  -1.7697141376254548e-07 5.7223716166858409e-08 0.0000000000000000e+00  -1.8601417707687853e-07 5.5569497191247092e-08 0.0000000000000000e+00  -1.6424934697368834e-07 -6.5866201114552488e-08 0.0000000000000000e+00  1.4017732466134147e-07 1.4411866897546493e-07 0.0000000000000000e+00  -1.6011703408775946e-07 -5.5417283006733138e-08 0.0000000000000000e+00  1.8871183542764590e-07 3.9205430726566761e-08 0.0000000000000000e+00  -7.1348856223861695e-08 9.6567267064239306e-08 0.0000000000000000e+00  9.1125070642372985e-08 -1.6624493430198108e-07 0.0000000000000000e+00  8.5208722359784076e-08 -2.0689052029119038e-08 0.0000000000000000e+00  4.6033432611468331e-08 -6.2452839668202595e-08 0.0000000000000000e+00  </DataArray> 
</PointData> 
</Piece>
</UnstructuredGrid>
</VTKFile>