<?xml version="1.0"?>
<VTKFile type="UnstructuredGrid"  version="0.1"  >
<UnstructuredGrid>
<Piece  NumberOfPoints="201" NumberOfCells="657">
<Points>
<DataArray  type="Float64"  NumberOfComponents="3"  format="ascii">-0.03207701191466746 -0.4335692640654357 821.1915204273788  -0.2266896976059963 -0.3883094346846606 -822.263876691447  1906.239691067913 0.3320488977100459 -780.4752475801421  3625.515765226824 0.389742632642159 -663.7088989562285  4984.725894769167 -0.2701429902977929 -491.6257073009602  5849.085287472375 -0.09790716822062816 -261.8845051097732  6147.127439987935 -0.679614892594506 1.079588077060388  5850.044722925201 -1.166497753834864 261.3545896234168  4984.349865220232 -0.5218139378602475 490.597032195134  3624.881165624631 0.09368112401324946 663.5093815484865  1905.996437378818 0.5209225826193755 779.2167617350631  2414.287762909664 -1794.558960882976 -714.1954607845965  2399.820572770708 1393.401415064727 732.9227383907991  5848.432571911007 -1591.37412114457 -128.134008335217  4225.581784678564 -1741.534946004381 550.8151262857975  5328.477334188958 1612.668181023643 354.7820423512165  5306.940904031998 1610.026433107156 -360.2864057761766  2695.691582579934 1605.636110041901 -703.8011507300457  928.9819157795555 -1605.616361593287 781.1133754444256  4197.180480169995 -1604.827758104019 -561.8754790900543  2921.604833710357 -3149.304664549261 -579.7929726020539  4338.169582552555 -3084.0081051814 -405.9757858323084  2972.43008092815 -4405.452334403377 -393.2167240451238  4180.139341329483 -4124.555205835488 -197.6042397176565  2624.205653672384 -5236.6711485469 -166.6335770740125  3733.727334469464 -4694.274445425497 42.96454879809862  1960.681825963491 -5593.040896575919 75.50345506347973  2846.933571103646 -4861.56358728515 289.0760264476911  1027.377499595944 -5449.859820373435 303.9366473738294  1826.413618313226 -4454.999255413504 494.7378524056891  -71.11063520744348 -4785.123999924651 494.556961562068  4369.90549710742 -3820.923768463771 241.5498393813759  4198.417604404732 1604.362254531992 561.5336084266793  4250.5816210874 3103.570483427082 420.1703017828328  5134.791853525437 2965.81404817688 193.6901166989055  683.0419440452748 -3558.939837505901 649.7100790826172  2503.920212822215 -3121.220894972555 614.4663857939961  2921.017430837035 2969.103830965035 598.4751338215153  2812.355582934108 4338.975904040222 425.4387814653568  5862.884628287825 -1553.866018862531 127.7557481343983  5170.035436289909 -3208.751056903065 16.01091309182199  5343.131327094529 -1614.801165394365 -350.467519274901  929.8109301527887 1605.820350169881 -780.3288502901446  4156.399427905706 1564.767672832868 -569.8791215889801  4215.431381086959 3085.539785569789 -428.7018556724799  1274.719881977257 -5289.231115027233 -342.4052088592816  -893.5660353118325 -5516.366433791753 288.2420456839175  1247.184616831614 -3231.150973970236 -669.9092891286763  5103.361447353271 3005.308348525089 -199.0992323630182  3814.620180812908 4338.998342640018 -241.9943063693823  2714.336596226332 4230.873531968934 -456.1807275531924  2140.195548703035 5263.519198019312 -257.6224624382614  947.2763873758495 4947.604586046021 -444.3637896655168  276.3889133298933 5696.473416935194 -234.8988986464342  -969.7370712312708 5091.546372099965 -410.5003502540312  -1596.838878952342 5587.831023236999 -180.0480263695189  -2820.190729214733 4781.387125652439 -318.0407953030796  -307.7515209689461 5917.833682728236 16.02347651738319  -1967.981910795085 -4598.650790322293 456.4735583203519  -2712.76740130007 -5073.422119814316 232.4279665025864  -3306.817543485262 4961.523351954545 -87.93064632627292  -4369.164105262128 3885.070354704592 -221.154886438084  -4647.474173181905 3869.260451061074 19.80901400461927  -5460.541621686275 2555.022274239789 -137.0876503281702  -5533.586639189724 2425.02570810715 126.9185377573596  -4854.795937954566 2425.135699768515 -386.738743859277  -4476.984455455388 3587.478911039663 276.5174596991206  -5776.060590606366 1060.400738217641 -248.5804662863493  -5116.652745594242 1996.043995386864 372.3608113596142  -4925.626485345863 683.5316777992033 -491.9352844027378  -5524.626796014653 -771.190301997638 -354.278391060287  -3811.963358554045 3013.046782571256 497.8493238734936  -852.0894120433898 -2466.648648906847 738.0373022559229  -3711.549048931621 -3931.731821167173 374.8757606234623  -4428.765261900383 -1045.784758598729 -555.5489302859121  -4779.020222202512 -2450.182418770777 -400.1065128079917  -5909.042368840621 673.6205801190815 214.0487237860135  -2060.046905829613 3965.40192913677 -551.8185480485126  -4218.165257409039 1287.783663634111 576.4947398298798  1326.581353622828 4008.080799089254 583.696372542587  -5688.340634902868 -2003.260650687757 -145.8421160647019  -3589.537158134006 418.7142132225517 -664.7098517896835  -2796.592118345343 2295.339213805414 659.3270031306432  -3447.885895582537 -2639.147814810065 -579.3857362644551  -3607.92415813741 -3926.088982992647 -392.9007609677224  -3039.54112453101 4422.35946543119 377.2208623464273  -1547.332605072154 -5720.368332167137 55.60598021593863  -2945.663760906445 385.9681170543385 718.00436158399  -4351.561730789003 -558.1795783410032 578.7171753445003  -2083.547659034565 -3940.68563219014 -551.4020092961658  -2087.780730475656 -5014.949865579855 -352.9528052745036  -1797.445728893408 -2497.197179053614 -704.3560250860155  3116.996274309342 5105.035863891721 -25.04243165307988  -4193.378656263468 -4209.892545898887 150.4701058676791  -5049.02430630974 -2843.711434952629 264.1615955390881  1102.612721462468 5155.347758384554 389.4746169499824  -398.8631047791721 4653.791142348496 512.0632436663102  -138.3518400367341 3507.889307515031 663.5415699967219  -1671.08272090014 1483.559132258532 761.8859245459493  -2785.527846484045 -3219.854728073254 585.2545302137105  1453.973325362193 3920.097404949062 -588.8063784447289  -3447.634341191845 -4741.328819809718 -185.7535091614732  -456.6408358106997 3007.434439906642 -705.7796233878004  -1012.893426545434 1289.855469191377 -790.5471468003591  -684.6286717195693 5545.847991900986 287.9601648650041  -1303.681405311514 -914.1208866408276 791.8750754965766  -445.7637451888079 -4872.356857941997 -473.3842990763616  -2815.212451359926 -1466.031147549919 703.4029901833011  -4337.804508116116 -2359.959405602367 486.6891283741878  -5391.456366939836 -1132.277708431766 376.0821575991164  -5887.476361799689 -1466.59035775471 121.473614030156  -6121.074716508197 -190.4648570503393 -74.04049221890124  -2368.736233469981 2555.492327129157 -670.4572945845201  -3591.636243089011 2824.920927567684 -545.850407683331  -525.0051599032868 -5586.155958329966 -278.0738320473385  -209.622796907379 4393.235035868583 -557.3068771815908  2451.934841603971 5213.463427113814 223.2080081915445  5306.735346390909 -1542.502488000954 366.6051495075288  308.413737019325 -1685.040751714663 -785.1454948078239  972.4045772274593 -5782.889373316641 -131.7578320330113  -1876.034349098353 3799.935293814297 582.8739538492795  5875.340157245905 1491.517229203101 -128.9325344965649  3926.772477920203 4298.809482039536 221.2260585061915  4629.696880758096 3892.590486274235 -10.17941444191455  -4695.756349568885 -3525.619970620035 -214.2048387068997  -2035.166441902428 5574.360550877984 68.86173612630067  -3414.099257889261 4805.852271628513 158.2358843992839  -334.6561277959097 -3637.691350405783 -647.1812407084456  -1438.333105315947 -663.6063264124983 -792.7893314816764  -3029.599736563054 -1064.944657198529 -698.4095500191844  1419.529106671355 5761.318043205754 -45.07121949039802  165.3392597125603 -5889.794354601013 95.08650016693548  3400.89703652068 -3755.409620389291 454.7019802167415  5885.387001491837 1510.886257854258 114.1110937629107  2696.803742192302 -1593.83189024973 704.3947681944761  -5200.246257501711 -3160.41306765444 20.51947842259993  -1103.926209457278 -3924.824269364261 602.2077982519464  3003.864944526375 2878.781790807993 -597.2891613030299  -5276.511351281387 473.9475685929172 426.5655279416926  1383.4172848148 -4428.465669263906 -522.1333167892097  1511.414483298435 2858.186274455618 691.6775209789184  875.7201008010624 5734.588679579036 179.7683983433934  -3830.474117105391 3724.467115793153 -393.5749051486393  5144.363161751434 -2860.097328527674 -222.0094438695209  -94.86396764352568 1547.972822369001 790.8662248882537  4663.599728667826 -2787.73154108991 380.6638826690404  -5966.518147112146 1413.269539135375 -18.71589345028027  -3177.631603208861 -5076.537660213797 6.956942281152129  -1939.246749527439 -5535.755312924505 -145.2549516481564  5515.456554148015 2618.41084567924 -7.03269306672192  -1376.252607938372 2931.648050677263 690.6182939854031  1713.819552972382 2660.828225734077 -697.31358066247  -2079.276164268765 437.8838649052317 -769.7336649779658  -2249.601195714847 5193.766548741674 271.1579261630479  5231.919636327736 -2660.773784192027 234.2562384163785  -420.5699635994641 -5886.274417636032 -86.438513484213  -3954.123196457218 1546.35229564504 -592.2840610703403  -2703.084130663607 1314.055005674285 -714.9947898199496  -1722.07842557883 4779.185853377428 438.8972868835363  -4322.245939477797 -4202.739660835512 -47.69770265749288  0.08307231220716456 0.4045691526945816 0.6941818706418497  -1967.049261448522 -2329.857051193084 21.53677472088967  2973.581446595835 908.4762016435066 -4.067324230745946  -1185.45927683799 2449.004132860931 180.5565473331226  2217.47921672345 -1736.540974383167 163.0092215921861  -1446.868969776226 253.9187006403947 -363.2179428762313  -3058.818886285299 461.4443524131391 -0.4124824967010287  584.745255043333 2769.280294912728 -155.0229364099925  2067.505775740061 -1365.93069267702 -244.8516574099301  -1609.192627536732 -259.1148955696205 352.1638828595292  1542.432133671133 2060.988215293257 282.8814291837562  -569.5139756392689 -2353.670837498739 -309.7518352353881  508.819043384911 -3397.327942554324 1.841819839280225  1228.560535680578 902.9033678786852 -404.15
[...]
<PointData  Vectors="Self-Gravity"> 
<DataArray  type="Float64"  Name="Self-Gravity"  NumberOfComponents="3" format="ascii">-5.0124413642023623e-06 -1.5259524378914844e-06 -2.9231277011655503e-04  -3.2712397917996052e-06 -5.9323781583779039e-07 2.9054957951643866e-04  -1.1579109717881399e-05 7.3477752165223911e-07 2.7333029094682058e-04  -2.5572261895946046e-05 2.0367195736021279e-06 2.4743092609529294e-04  -2.8744064180921880e-05 4.1820388690661650e-08 1.3277264359427843e-04  -3.7646334795015264e-05 2.9703249062308073e-06 8.5845037274061728e-05  -4.3320818916075643e-05 -1.1207285113958800e-06 1.8008411237331814e-05  -4.2455231714294453e-05 -2.5210907974999043e-06 -7.5256418738157971e-05  -2.9140166563218139e-05 4.6270264312978867e-07 -1.4238242698445122e-04  -2.5946227694777806e-05 8.8085331467034532e-07 -2.4119290002040685e-04  -1.3492748664831088e-05 3.9578125540090421e-06 -2.6383024038335195e-04  -1.2842131717844914e-05 1.1630617155261671e-05 1.9363381665742777e-04  -1.6689334389973433e-05 -1.1368739237186171e-05 -2.5733516104234019e-04  -4.7070760930327796e-05 1.4395707663392216e-05 3.7152694634446717e-05  -2.7102909228557691e-05 1.2928581893436482e-05 -2.0385012366131060e-04  -3.1525406220812224e-05 -1.0901321692869674e-05 -1.2103017655123386e-04  -3.2713744155171481e-05 -1.2012215464518455e-05 1.2961598002964367e-04  -1.6215872386938269e-05 -1.0678712165801190e-05 2.3353217553902635e-04  -5.6773668342847003e-06 1.0188253297480351e-05 -2.2556722819011890e-04  -2.9799946640006021e-05 1.5093474610259755e-05 2.0932761595388887e-04  -2.0236475768967752e-05 2.4805799389912819e-05 2.0566166443310475e-04  -3.2315902938210554e-05 2.8099809474834086e-05 1.4232426783510657e-04  -1.9976246377824165e-05 3.3973424977102013e-05 1.1326962598149546e-04  -3.1927300200504132e-05 3.5359912039022774e-05 5.4893043714511162e-05  -1.6534290982023739e-05 3.7965336103368336e-05 5.4659525518253743e-05  -2.9518041896106590e-05 4.2730163542514389e-05 -2.9888601217265259e-05  -1.6792268957933637e-05 4.5376810077111138e-05 -3.1179398010888191e-05  -1.3405327004737187e-05 2.7625942555977194e-05 -7.1470724463868716e-05  -6.0015601643794506e-06 4.0051194856961390e-05 -1.0382227505966226e-04  -1.1002343280216286e-05 3.0398554862416314e-05 -1.3718236980819838e-04  1.3204210105741605e-06 3.7944343301583736e-05 -1.6307350135687590e-04  -3.0963974194475294e-05 3.3846813331664226e-05 -8.6753375895514816e-05  -3.4452008035918957e-05 -1.5301557380006243e-05 -2.2131592318529202e-04  -2.8878157589524004e-05 -2.5517516906728612e-05 -1.3374896152977130e-04  -3.1049867536704150e-05 -1.8707551063986247e-05 -7.5518404464877529e-05  -3.5638127173946474e-06 2.7039382385815045e-05 -2.4282114013899549e-04  -1.7326574712322172e-05 2.4844933656925252e-05 -2.3149850422480651e-04  -2.4880840665065483e-05 -2.6533182062426362e-05 -2.2021006657482614e-04  -2.2671223875280829e-05 -3.5120628364232130e-05 -1.3328296587875139e-04  -5.0416579312252696e-05 1.1332797767543619e-05 -5.2122450990413214e-05  -4.0678114795602283e-05 2.8441169822403194e-05 -1.0925084668027736e-05  -3.7839219573005931e-05 1.1281427395753616e-05 1.3542095918432214e-04  -4.5391496205058484e-06 -1.4538696804829198e-05 2.9437363473869580e-04  -3.1056099544440862e-05 -1.2755548809263033e-05 2.1327978054342791e-04  -2.9167194949697689e-05 -2.4204289343233540e-05 1.3979976771937071e-04  -8.5895538079363066e-06 3.1854388868158198e-05 1.0453471629176620e-04  4.8038857803047891e-06 4.8970128502741150e-05 -1.1605969846891076e-04  -8.4929069900780174e-06 2.3039172861988762e-05 2.1936063459217103e-04  -3.6850242246559856e-05 -2.2835865548736716e-05 7.8483169007515706e-05  -3.0447985056090569e-05 -3.3785628664887505e-05 8.1866904452453150e-05  -1.9234071756524140e-05 -3.5080329719797028e-05 1.5345662009858422e-04  -1.9935442184408790e-05 -4.1762178466337179e-05 9.1169719448328949e-05  -5.9174120544002190e-06 -4.1941447365999033e-05 1.7544118575911488e-04  -2.1280202960322886e-06 -4.4791436759058965e-05 8.8910791375779240e-05  7.9493530920510246e-06 -4.1873454516351229e-05 1.3637422871385204e-04  1.1477009085820992e-05 -4.4865493124906948e-05 5.0490937163553364e-05  1.8153444542507108e-05 -3.9046758389773472e-05 1.1196371807669175e-04  2.4946338248527374e-06 -4.4427145378157239e-05 -1.2403634234122997e-05  1.4469023670921253e-05 3.6342355660167704e-05 -1.5075747892569021e-04  1.3447963034155566e-05 3.2735163502819530e-05 -6.5593100892660837e-05  2.4825993696082596e-05 -4.0903561138711504e-05 2.9636627982269195e-05  3.2766727547737433e-05 -3.1404816817179967e-05 7.8689572979717212e-05  2.8079732658495030e-05 -2.5797687704323870e-05 -1.6639643683958702e-05  4.2431402075308460e-05 -2.4219959562113381e-05 4.5323877866137076e-05  3.8086168428165364e-05 -1.8514760783533779e-05 -5.0740028324225430e-05  2.6928438314575699e-05 -1.2607499447571909e-05 1.0761508570856845e-04  3.4360956568022454e-05 -2.5326930597639619e-05 -9.6449823017959405e-05  3.6896807094194585e-05 -6.0416591158218643e-06 8.2592467856232771e-05  2.7234554636361876e-05 -1.1059406651465204e-05 -1.0405191966484283e-04  3.5999393713294719e-05 -2.7537944435345693e-06 1.5367372567619020e-04  3.8476508076695457e-05 4.9415376984089367e-06 1.0887450855217314e-04  3.1941115979440920e-05 -2.8891553797890374e-05 -1.9411935762254763e-04  8.5584251181074342e-06 2.0337758183742018e-05 -2.5989465122665804e-04  2.5245302361271372e-05 3.2354485840006662e-05 -1.2987569496591085e-04  3.6758673994988180e-05 1.0135742117945005e-05 2.1558984389648779e-04  3.3265459959524387e-05 1.7709868279208453e-05 1.5051362512463550e-04  4.6236885296570023e-05 -2.3507692291070875e-06 -7.4008959049556174e-05  1.2956570055253359e-05 -2.5350052831058731e-05 1.5388818677464583e-04  2.9105416632144959e-05 -1.1333215843931930e-05 -1.7452259314982150e-04  -9.8826304788269556e-06 -2.9736524859617741e-05 -1.9944320004536338e-04  4.4248445622965287e-05 1.6938358834946264e-05 4.4192413384169316e-05  2.7825347429002623e-05 -1.7181733438271214e-06 2.4201962696464641e-04  2.0840381482279800e-05 -1.5667735426756854e-05 -2.3387114867211693e-04  1.6618349697022545e-05 1.4961929246940547e-05 1.6397312528385033e-04  2.2743946304198503e-05 2.7451923091177042e-05 1.4924365292125254e-04  2.5849617879034005e-05 -3.6010503923211897e-05 -1.3378733423457379e-04  1.2185083095699200e-05 4.1901843126595224e-05 -2.4553844487292971e-05  2.3525179956409193e-05 -3.5085301822018115e-06 -2.6559136244926551e-04  3.3310538569860690e-05 3.5765822596756294e-06 -2.0974207722440871e-04  1.2761876738354341e-05 3.0317553442233890e-05 1.8654617149790848e-04  1.5196777804840819e-05 3.8715104648911964e-05 1.1739591619961778e-04  1.1106419531359488e-05 1.9272107529751800e-05 2.6481334242794687e-04  -2.3172347717666239e-05 -3.8059520443518112e-05 -1.1309534066070830e-05  2.9876205429661712e-05 3.1438376735908067e-05 -6.4894680942574346e-05  3.1455286947100070e-05 1.7041191535914118e-05 -8.5638473161509250e-05  -9.4106126376436452e-06 -3.9880308262346744e-05 -1.4461047460646257e-04  1.4375947604532025e-06 -3.7519768927332692e-05 -1.8813145835946528e-04  5.0128757694451649e-07 -2.0685961820446343e-05 -2.0422257936590104e-04  1.1661829885814910e-05 -1.1468666703271635e-05 -2.6155073613191485e-04  1.9736159474661441e-05 2.3060286729693959e-05 -2.0429052421047766e-04  -1.1186667705743468e-05 -3.0159849987699654e-05 2.1924064163603038e-04  2.5586386252483321e-05 3.4690903198249971e-05 8.1653039786281107e-05  4.2789729459020177e-06 -2.1808916846447767e-05 2.2000940574016977e-04  8.1345834245550040e-06 -1.5003223075539063e-05 3.0039336829940728e-04  5.4403114626663359e-06 -4.6485239715868662e-05 -9.8498246632952116e-05  8.2527205512458753e-06 2.7236967941029305e-06 -2.9699954540915398e-04  3.7535835189844751e-06 3.9315228703290442e-05 1.7418805155378094e-04  1.9340265015595668e-05 8.3049433140100196e-06 -2.2343453111534043e-04  3.2021221746272627e-05 1.5529328195223246e-05 -1.9405333395551536e-04  3.3451989725454677e-05 8.0057779936510852e-06 -1.0783996862017044e-04  3.1380574862776184e-05 1.0197858230426954e-05 -4.3408515424358184e-05  4.3870160700047214e-05 3.1774326979395317e-06 3.3557187308919715e-05  1.6719897639449659e-05 -1.8688790245360378e-05 2.4027700766234480e-04  2.6254261686569196e-05 -2.6952149112917853e-05 1.8961395603822205e-04  1.7565519281301127e-06 4.5747895888599079e-05 1.1796710864328013e-04  2.9536428562418948e-06 -2.6543971932311892e-05 1.6246930727757477e-04  -1.8806989400382152e-05 -4.3770688773585898e-05 -7.1837896327471267e-05  -3.7154020763415513e-05 1.0766193436225193e-05 -1.0397645688042356e-04  -1.1339189397591108e-07 1.1928544081076474e-05 2.5867543413870533e-04  -6.1808197782520725e-06 4.7405361140299127e-05 5.2963666013204386e-05  1.5157354046272969e-05 -2.7062833625729372e-05 -2.1000143454719494e-04  -4.6593292819326247e-05 -1.1820741179808966e-05 5.5096735494441923e-05  -3.2305104130570767e-05 -3.6402513723206303e-05 -7.8919167156492188e-05  -3.4127995737234549e-05 -3.3511188812974538e-05 -2.4947953528180063e-05  3.6321468445759451e-05 2.7480864476730683e-05 7.0641866108041775e-05  1.9376137011540648e-05 -5.1005174172488413e-05 -1.9673148023249866e-05  2.5479180829370657e-05 -3.3683332065898381e-05 -4.8856194747861380e-05  3.8165506317108446e-06 2.8478986634187504e-05 2.3232950268158999e-04  8.8201645412525275e-06 6.4814822224060301e-06 3.0329077962321376e-04  1.6582078531487382e-05 9.3245246479527498e-06 2.0544922176864199e-04  -1.1368957325996156e-05 -4.9368623827904121e-05 1.8090481925064753e-05  -4.7005109624504969e-06 4.5840083681984561e-05 -3.8760127218407597e-05  -2.6326472936679614e-05 2.9025065143761158e-05 -1.5984512728871812e-04  -4.6577228966737061e-05 -1.3290583854293105e-05 -3.8115112359644684e-05  -1.7615094314895266e-05 1.0852524794895719e-05 -2.3484476955840683e-04  4.0577042797352279e-05 2.5541230922093677e-05 -5.3901286229032879e-06  5.0441882218622739e-06 2.3868554330289413e-05 -1.8159074912418711e-04  -2.1563239326490161e-05 -2.3048359541918953e-05 2.1505113795848333e-04  4.0708231021798470e-05 -2.4001065852854139e-06 -1.5722688416645430e-04  -1.0830087088372343e-05 3.4374240990966257e-05 1.7942058983727810e-04  -9.3527481859917646e-06 -1.9782715355090537e-05 -2.4381127512888102e-04  -6.2555485409621371e-06 -4.3445165212420359e-05 -6.3607449325200042e-05  2.8887286198678830e-05 -3.1518748391088073e-05 1.6736837872460584e-04  -4.2903724702532480e-05 2.7122569722380487e-05 6.1969325178864984e-05  -2.4564537749384654e-06 -1.2572321780607571e-05 -2.7343891294394460e-04  -3.3606951457139790e-05 1.9937471621963473e-05 -1.4494763453000304e-04  4.2987377253743815e-05 -1.1376400748925654e-05 1.1740389567152315e-05  2.2598980178797529e-05 4.1360035299963897e-05 -4.8404149366648788e-06  1.0851368524397096e-05 3.0920477386952203e-05 4.8049102657351146e-05  -3.8232150610726055e-05 -2.1313701758241572e-05 -1.4945810819133931e-05  8.9193066919736891e-06 -1.5349371516104750e-05 -2.4087190460120311e-04  -9.4105291557490574e-06 -2.3540267096765771e-05 2.5757313811743137e-04  2.1059654331195227e-05 1.2028154527036769e-06 2.8754270804652306e-04  1.8377110430119378e-05 -4.1470453569326277e-05 -7.9040996527650779e-05  -4.4396427925853186e-05 2.4626261438502995e-05 -8.3626809873234585e-05  4.1214864684410254e-06 4.3323657890380721e-05 9.7640446947651195e-06  3.3207066012392847e-05 -1.3885260612931377e-05 2.5225195493342020e-04  1.9462543765668338e-05 -8.8160531739346175e-06 2.6898318307476605e-04  1.5080235248330955e-05 -4.0631969400354102e-05 -1.4999084852915855e-04  3.4560354068144806e-05 3.6808736411927515e-05 8.0847086244372823e-06  1.2208845047688918e-06 5.4735431569020355e-06 -9.6259147437268257e-06  1.9347522000220687e-05 2.1847075403216653e-05 -1.9357008933627233e-05  -3.1958161050658813e-05 -7.5725120850882528e-06 -8.6728015479712164e-06  1.4278008832515919e-05 -2.5179784541860012e-05 -1.0433521388607988e-04  -2.1861421240729611e-05 1.7439496632301463e-05 -8.0417124503821816e-05  1.1267516973156504e-05 -4.5252211220331940e-06 1.8182058632274016e-04  2.8234540692513194e-05 -5.1563737961483109e-06 -1.0201755300485363e-05  -6.1543792693575758e-06 -3.0563265940115272e-05 1.0267110113530405e-04  -2.0085703066529571e-05 1.4878319572209948e-05 1.0269699068994121e-04  1.5111687154567305e-05 4.7574417794625448e-06 -1.7164975508350119e-04  -1.6484417998750823e-05 -2.3156207919250823e-05 -1.7327483976393722e-04  6.1348043906811087e-06 2.0361720513153925e-05 1.2503977845427713e-04  -4.5400955368307333e-06 2.8340678123151131e-05 7.7410624222706700e-06  -1.2662418773656420e-05 -1.1049903996943122e-05 2.2910662100698219e-04  5.3145713151156362e-06 2.1621769844351260e-05 -1.4446231362677943e-04  -8.3768197302964499e-06 7.3117572857183805e-06 -2.2085972943482586e-04  1.7878606196811085e-05 -2.2907459817283207e-05 6.8055357915856171e-05  2.8581021990382981e-05 1.4036309222163873e-05 7.9844519133145586e-05  -2.7138684634290720e-05 -4.4132692960156934e-07 -1.4531195813450844e-04  3.6104611398335759e-06 -1.6952668845253704e-05 -2.2907069030624080e-04  -7.1994598274828167e-06 -3.9286343832165908e-05 -8.5220599756757903e-05  -2.5503306035656275e-05 -2.4031766215427847e-05 1.3754875644693716e-04  -2.2783791665920162e-05 -3.1155379355937636e-05 -8.0684784140622351e-07  2.9479336160896533e-05 -1.2697437112724028e-05 -1.5842287546885515e-04  -4.0187403576888657e-05 1.3049595469210146e-05 1.6363951112852118e-05  5.4644499022528805e-06 -2.5412607694924506e-05 2.0202885538306601e-04  3.4843281944218621e-05 1.3183736485395675e-05 -9.5672366397373882e-05  -3.1741574714005423e-05 -3.5992458441726732e-06 1.2847702533303889e-04  -2.7489171062697458e-05 3.3137488905459491e-05 2.8366290269622201e-05  3.1602113646373711e-05 -1.0556303092035826e-05 1.3642931664260927e-04  -7.5920933616133752e-06 1.0370469785489016e-05 2.0985231137913860e-04  1.1990251991746174e-05 3.7028700456646392e-05 8.5335913589059041e-05  1.1323319788313341e-05 4.0235837178804413e-05 -8.3142517419815406e-05  -1.2876835245480141e-05 3.4526676297622099e-05 -1.1737813022485811e-04  2.8911386970635574e-05 -3.0422866807273610e-05 -2.6553366135136205e-05  -1.1185335495144013e-05 3.2972102223802335e-05 1.5046405316629559e-04  9.6708095080109072e-06 -4.0230208541626811e-05 2.2093655796347151e-05  1.8580423347764818e-05 1.4230304695942484e-05 2.1804690477666191e-04  -3.3657020379530277e-05 -2.0663795834351360e-05 -1.0442589073115162e-04  -5.2459656885580493e-06 -1.5536490061313986e-05 -8.4591631280967134e-05  -1.1771112079044280e-05 -7.6305575386551158e-06 1.0984699183321086e-04  </DataArray> 
</PointData> 
</Piece>
</UnstructuredGrid>
</VTKFile>