<?xml version="1.0"?>
<VTKFile type="UnstructuredGrid"  version="0.1"  >
<UnstructuredGrid>
<Piece  NumberOfPoints="201" NumberOfCells="657">
<Points>
<DataArray  type="Float64"  NumberOfComponents="3"  format="ascii">-2.089608793250199 -0.6817244332059194 840.6378897189546  -1.339118556611848 -0.2988565275297299 -840.9834591467783  1910.744098756804 0.155060049559811 -801.351825945968  3632.998089655075 0.6041692292336612 -675.9384205589454  5003.148127656849 -0.2690644623623173 -509.0215001448238  5880.057727938643 0.8918172016366449 -261.7089450230409  6181.347545944755 -0.7831977893063855 6.780719988907729  5878.158230446199 -1.328288622871846 265.5946751047952  5002.900868454128 -0.09144794935035433 505.0863875047452  3632.844862509614 0.1285870726570549 678.4056728304586  1909.929699695981 1.504081901535109 804.8835766047184  2421.393772235443 -1799.002125733722 -753.3999865119783  2404.149010662164 1396.177351418902 750.1021350655278  5881.678383535588 -1600.167030746445 -127.283219473014  4236.84067983931 -1746.88900572023 556.9427864989066  5353.804612808434 1619.148378189549 354.375584264399  5330.98334028771 1618.688026011095 -358.0305825069442  2703.187353744085 1609.80742580224 -727.6645616773063  931.2899462100753 -1610.25019883957 818.8855130796733  4208.212037453925 -1608.382269321472 -568.1072163593757  2929.351199034601 -3157.359351400188 -591.1630761407932  4351.764351144844 -3093.337671427058 -407.0966687542409  2984.711211814016 -4424.202620172483 -399.7764450653446  4204.411234388845 -4151.150944460134 -197.6986816990715  2639.388363850411 -5268.616258780542 -164.795401331659  3756.020479294205 -4725.017004393195 35.77071846577312  1972.185149124928 -5627.063017391794 72.8419213479245  2865.040911355871 -4893.115552587788 293.59938630587  1031.408606774466 -5479.395665818751 301.9710507526161  1832.425742001026 -4470.37711379455 511.6462937029135  -71.10583832409901 -4799.54614970564 502.4698374121732  4389.87824778778 -3839.251062462949 238.3136290865631  4206.555708421779 1607.869255135178 564.3140806774751  4264.770497582119 3114.407162631853 426.1321541550481  5166.673140688843 2986.832505538323 187.681705853653  685.5743660070506 -3566.758266784429 663.2923560448879  2509.268585384261 -3127.334004837787 624.2532722558421  2927.5092823157 2975.781290685812 607.1416702200939  2821.536290854915 4354.903886902282 432.9131881630124  5891.309816021866 -1562.211656664429 121.5919425801526  5195.830558587879 -3225.981604547795 12.27586851582407  5362.91247143021 -1621.002880728077 -344.879437923028  931.9116496057768 1608.331467723362 -793.3579649855395  4165.833781889297 1568.365381811304 -575.5160071712155  4231.951774412188 3098.133116351069 -433.5667043517516  1280.435744227952 -5318.681547927357 -344.7606719511366  -896.7895155164628 -5540.924210806347 279.1215113170783  1249.662843230166 -3239.324248794024 -691.8930996819631  5128.87605131566 3020.827901006417 -193.7539327315792  3834.300429918493 4363.887131221989 -237.8242539854101  2723.382620952461 4245.999786881114 -461.8075244996245  2148.395011309472 5289.00306142752 -255.3066222809557  950.3292083335737 4965.027919352171 -439.4209051357774  278.2375609561845 5726.260650067856 -229.3973736691397  -973.0750453600798 5109.102096698177 -415.2573522864705  -1606.597149988865 5623.77977618898 -179.2692556538395  -2832.211743654659 4802.322792588913 -315.57974756748  -308.7107167935325 5957.184716450498 12.90877812507264  -1974.06248341547 -4613.901025557603 463.3244080618001  -2729.519781816415 -5105.688485130411 233.1985430259013  -3324.219149253537 4990.80181958434 -85.73706481342816  -4391.187664716323 3904.151695054732 -216.1809128283122  -4680.767231506635 3898.151811857186 15.77548377995827  -5486.377641109571 2568.836515166584 -136.4590681192444  -5563.596925849512 2440.163112401914 124.3014439853663  -4878.078358133793 2438.835156141639 -395.9896072729038  -4497.660084222858 3606.120700822955 271.9604781770379  -5807.448125025574 1066.6260497822 -247.7142931862741  -5142.606079805305 2007.519966214867 381.2076481470986  -4941.38109992702 685.2258840441073 -502.5946447910554  -5549.801955039849 -774.0363096389608 -359.164233276509  -3820.907707520293 3021.018201259853 497.7915227628541  -852.8493445050804 -2470.632615705074 757.3980712312011  -3724.539649977067 -3945.285201496537 375.3059469167277  -4438.517313998568 -1047.264110339948 -558.1265628037783  -4798.048831141447 -2460.728652606118 -396.6865732121928  -5937.492780371569 677.6257221562053 212.9965509642354  -2066.748673763424 3979.893929744047 -574.7245840866944  -4228.789386275515 1290.521748624703 596.4827516169713  1329.18655510548 4019.695397498442 596.7499558725908  -5721.163231756129 -2014.892655457349 -144.8305357336804  -3596.795924854291 419.4538683747776 -678.6478591557545  -2802.501287524645 2301.23893100296 675.8435335624206  -3460.541838155726 -2648.867754130762 -603.3308683908214  -3621.430792425267 -3941.966967190025 -389.9259457638368  -3049.027643070739 4437.321764211612 378.1598985866513  -1557.794612768509 -5760.754812526688 52.3290653364046  -2950.925901584187 387.2218300581636 733.2546387151531  -4360.878286842543 -559.6703505757357 588.6167063740334  -2090.546843256715 -3952.223680840044 -565.3283931978294  -2096.599148121787 -5038.48997561979 -349.1976056093445  -1801.348415385905 -2502.685383580139 -717.7475300008047  3134.010851768296 5139.187938334967 -31.14161660676847  -4214.912927713659 -4233.305508741057 144.4443029971788  -5076.739658638522 -2860.554056251476 262.8682688910153  1106.426373312755 5174.74531755622 386.4544008481332  -399.9580891713851 4666.473357775873 517.8041372965  -138.4982677327864 3519.313459161747 690.5875887480181  -1674.372774115049 1485.905296926981 785.3874047259453  -2792.452293068824 -3227.84041981986 597.2264110976628  1457.184784897973 3929.384166802035 -596.6156759728893  -3464.330718446668 -4765.686592657245 -177.0813067192482  -457.1888939948862 3015.078772950363 -734.7504684707861  -1013.805610506261 1290.467289692188 -801.767180264689  -687.3090711380352 5569.71853456898 285.5797417798657  -1306.310105429437 -916.5310592688688 805.8803040592486  -446.6447068502158 -4886.531382849206 -474.6047493351056  -2821.961673970081 -1471.286804676344 728.7309280874873  -4349.542092916004 -2367.720465535687 487.3610271410229  -5417.440792159216 -1137.663858403821 379.970865811396  -5930.192758894322 -1477.20431404894 117.506178482048  -6154.557609877884 -191.1507454114756 -70.00992257231675  -2373.835116462446 2561.722579743064 -686.9349407425947  -3599.999290522904 2831.084460213284 -555.5202013060149  -526.7134856237271 -5612.630676070172 -266.8082733613845  -209.4896861619977 4409.577932801079 -578.4840800305168  2464.477970624342 5242.137162113357 221.5609455665887  5327.257968339202 -1549.430756459154 375.195336537521  309.5533247644503 -1689.39867423828 -813.2693994725544  977.0796598492888 -5816.903958161723 -126.8324856101152  -1881.18847465123 3810.561899747107 592.6987330849757  5906.953373513517 1500.316934685409 -123.5807621426212  3947.529608766264 4323.011783415112 214.9828822221467  4658.803843733259 3918.132063349898 -20.26865855962517  -4718.335425116749 -3544.530884625465 -214.2808020111612  -2045.851242866301 5605.793080318826 66.74215093898333  -3435.356137714318 4838.673162871798 155.9259963242495  -334.8258386711595 -3646.06958920742 -663.4421205198938  -1440.913838246836 -664.9710786379925 -804.5129557641073  -3038.43065811373 -1067.56805004228 -733.0376278712122  1427.757110959868 5793.552686030982 -41.83818232595748  165.60962949056 -5925.785613638984 91.44898551566527  3411.900757998405 -3768.434392640888 456.9242228360403  5917.46862644614 1518.95133377034 113.8134941582565  2703.949606270979 -1598.444945844573 727.3095508248416  -5226.888221367599 -3178.234993190412 21.56818467062326  -1107.674975150795 -3937.513462230284 625.8862351032637  3011.415832779221 2885.982605983578 -610.0228167189531  -5294.347072556875 476.0944885943869 424.950990254917  1386.891290061122 -4441.144314494192 -530.3863160734022  1514.574850251937 2864.721828116437 709.002180104561  880.8129876845788 5770.008934818343 176.4554228832774  -3843.230112663641 3737.787061279816 -382.8874616056547  5166.656636636807 -2873.186697994438 -225.4392263758177  -95.82860299168529 1550.892826182123 815.3061052754357  4681.485605741 -2798.736621527788 377.1613927248978  -6001.420967402087 1421.594166244416 -17.19999118528655  -3195.398610131645 -5105.053516994969 7.56123300374331  -1952.791075356704 -5577.996267312819 -140.118315208708  5545.837803924137 2634.193836226691 -12.31946603914711  -1379.803608964863 2941.24544268343 709.0721509853897  1717.918223228846 2666.997102373439 -711.4325807987162  -2081.234691368985 440.0007992973526 -784.3039800455142  -2258.694564620017 5217.952591386615 272.387819731925  5254.265534827611 -2672.488225614654 230.2087703033697  -420.8695525233151 -5921.872591961963 -92.07771978313652  -3961.809818062849 1549.830135654768 -591.8520632918912  -2708.972973943417 1318.291819164645 -727.2460150834928  -1727.026441024418 4796.654089111135 441.8010302633115  -4345.348043983985 -4226.346463167316 -50.31200115075838  0.4722460090630411 2.212203766028737 -3.638812050109124  -1968.96387917916 -2332.064196098993 19.14599856870914  2975.989968022331 909.686580439433 -7.533273228081688  -1184.804761006178 2450.304723458543 170.3415753108552  2218.835498174221 -1737.29112342265 160.4319515654757  -1446.844631781682 253.5045379318337 -355.074663027565  -3062.733679187011 462.6669082435486 -3.39049294469401  584.8979658082169 2770.723783804434 -143.4089401266206  2067.977439628363 -1365.594403677073 -246.215627787976  -1608.896155302279 -258.608870598552 346.2427306122625  1542.030029831112 2061.345053573511 266.1359527352538  -569.5330426529699 -2355.009057620364 -312.6090899084041  509.5183328575407 -3401.866250100804 4.675527912645777  1227.906425096081 901.8144939768139 -385.3439858136692  -485.02428
[...]
<PointData  Vectors="Tidal Force"> 
<DataArray  type="Float64"  Name="Tidal Force"  NumberOfComponents="3" format="ascii">4.8936045379618337e-30 -4.3693786522622686e-16 0.0000000000000000e+00  2.1451417152709409e-30 -1.9153440667451041e-16 0.0000000000000000e+00  -1.3407135720443379e-30 1.1970900417156900e-16 0.0000000000000000e+00  -4.6924975021551830e-30 4.1898151460049153e-16 0.0000000000000000e+00  1.4077492506465549e-30 -1.2569445438014745e-16 0.0000000000000000e+00  -6.9717105746305583e-30 6.2248682169215887e-16 0.0000000000000000e+00  4.8936045379618337e-30 -4.3693786522622686e-16 0.0000000000000000e+00  8.7816738968904134e-30 -7.8409397732377701e-16 0.0000000000000000e+00  1.3407135720443380e-31 -1.1970900417156900e-17 0.0000000000000000e+00  -1.2066422148399043e-30 1.0773810375441211e-16 0.0000000000000000e+00  -1.0658672897752488e-29 9.5168658316397369e-16 0.0000000000000000e+00  2.6540095515403689e-26 -2.3696995920782941e-12 0.0000000000000000e+00  -2.0607236852071690e-26 1.8399692922684756e-12 0.0000000000000000e+00  2.3616267357489399e-26 -2.1086381957809366e-12 0.0000000000000000e+00  2.5776022850695626e-26 -2.3014774306009172e-12 0.0000000000000000e+00  -2.3892052139258921e-26 2.1332623379390284e-12 0.0000000000000000e+00  -2.3888767391007413e-26 2.1329690508788081e-12 0.0000000000000000e+00  -2.3752751999123513e-26 2.1208245724056022e-12 0.0000000000000000e+00  2.3755768604660616e-26 -2.1210939176649885e-12 0.0000000000000000e+00  2.3742361468940169e-26 -2.1198968276232725e-12 0.0000000000000000e+00  4.6595427625543330e-26 -4.1603906727795437e-12 0.0000000000000000e+00  4.5660548051756810e-26 -4.0769175841707081e-12 0.0000000000000000e+00  6.5287857354021295e-26 -5.8293915652901842e-12 0.0000000000000000e+00  6.1265917744924098e-26 -5.4702825091261034e-12 0.0000000000000000e+00  7.7738930226239860e-26 -6.9411171161311288e-12 0.0000000000000000e+00  6.9743383732317647e-26 -6.2272145134033514e-12 0.0000000000000000e+00  8.3042524974532851e-26 -7.4146619948330209e-12 0.0000000000000000e+00  7.2176845901256720e-26 -6.4444923414249573e-12 0.0000000000000000e+00  8.0853407854098854e-26 -7.2192011328216830e-12 0.0000000000000000e+00  6.5957074533507231e-26 -5.8891443147224228e-12 0.0000000000000000e+00  7.0832847580960877e-26 -6.3244900501931680e-12 0.0000000000000000e+00  5.6666935014418996e-26 -5.0596506975665786e-12 0.0000000000000000e+00  -2.3739277827724467e-26 2.1196214969136779e-12 0.0000000000000000e+00  -4.5967169245683356e-26 4.1042950334247466e-12 0.0000000000000000e+00  -4.4065635186452868e-26 3.9345117528082101e-12 0.0000000000000000e+00  5.2634940053531454e-26 -4.6996438238712104e-12 0.0000000000000000e+00  4.6153059182447300e-26 -4.1208926868531340e-12 0.0000000000000000e+00  -4.3927675759889504e-26 3.9221936962789555e-12 0.0000000000000000e+00  -6.4272669037269325e-26 5.7387479073314726e-12 0.0000000000000000e+00  2.3048207017014213e-26 -2.0579174907134427e-12 0.0000000000000000e+00  4.7613297369439388e-26 -4.2512737487465985e-12 0.0000000000000000e+00  2.3915246484055289e-26 -2.1353333037111965e-12 0.0000000000000000e+00  -2.3742093326225759e-26 2.1198728858224381e-12 0.0000000000000000e+00  -2.3149699034417972e-26 2.0669794623292307e-12 0.0000000000000000e+00  -4.5723360482607090e-26 4.0825259510161466e-12 0.0000000000000000e+00  7.8460167092321116e-26 -7.0055145749252241e-12 0.0000000000000000e+00  8.1789091856028603e-26 -7.3027460468330214e-12 0.0000000000000000e+00  4.7798181771024309e-26 -4.2677816204218582e-12 0.0000000000000000e+00  -4.4579262555903049e-26 3.9803722723063377e-12 0.0000000000000000e+00  -6.4400304969327942e-26 5.7501442045286058e-12 0.0000000000000000e+00  -6.2669041533747099e-26 5.5955639674418588e-12 0.0000000000000000e+00  -7.8053930879991670e-26 6.9692427466612384e-12 0.0000000000000000e+00  -7.3284007169050926e-26 6.5433480370698387e-12 0.0000000000000000e+00  -8.4504640160525793e-26 7.5452106493323250e-12 0.0000000000000000e+00  -7.5405284182739482e-26 6.7327516234700956e-12 0.0000000000000000e+00  -8.2992784501010008e-26 7.4102207907782561e-12 0.0000000000000000e+00  -7.0874744880087260e-26 6.3282309565735297e-12 0.0000000000000000e+00  -8.7902276494800569e-26 7.8485772077039160e-12 0.0000000000000000e+00  6.8093501610559878e-26 -6.0799006128698179e-12 0.0000000000000000e+00  7.5325645796560045e-26 -6.7256409086223042e-12 0.0000000000000000e+00  -7.3654379293328184e-26 6.5764176494722352e-12 0.0000000000000000e+00  -5.7615355795283167e-26 5.1443328471175468e-12 0.0000000000000000e+00  -5.7506221710518748e-26 5.1345885341779803e-12 0.0000000000000000e+00  -3.7919536029487216e-26 3.3857417358849035e-12 0.0000000000000000e+00  -3.6005868512429729e-26 3.2148750887806142e-12 0.0000000000000000e+00  -3.5969267031912920e-26 3.2116070329667305e-12 0.0000000000000000e+00  -5.3206151070900948e-26 4.7506458450985075e-12 0.0000000000000000e+00  -1.5731061590546433e-26 1.4045876440964792e-12 0.0000000000000000e+00  -2.9609994416992216e-26 2.6438032843801445e-12 0.0000000000000000e+00  -1.0101874551282473e-26 9.0197143373152100e-13 0.0000000000000000e+00  1.1422008169995929e-26 -1.0198429046890564e-12 0.0000000000000000e+00  -4.4598568831340494e-26 3.9820960819664088e-12 0.0000000000000000e+00  3.6464794768140508e-26 -3.2558514809085424e-12 0.0000000000000000e+00  5.8230072968065490e-26 -5.1992194255302105e-12 0.0000000000000000e+00  1.5463522197244987e-26 -1.3806997123140427e-12 0.0000000000000000e+00  3.6312288599320463e-26 -3.2422345816840263e-12 0.0000000000000000e+00  -9.9880479690159096e-27 8.9180813927735481e-13 0.0000000000000000e+00  -5.8715880530895759e-26 5.2425959831917784e-12 0.0000000000000000e+00  -1.9047249575319500e-26 1.7006818804646466e-12 0.0000000000000000e+00  -5.9317793889065070e-26 5.2963393406146049e-12 0.0000000000000000e+00  2.9740445847552126e-26 -2.6554509704860380e-12 0.0000000000000000e+00  -6.1836391369828951e-27 5.5212186904011052e-13 0.0000000000000000e+00  -3.3952766783879635e-26 3.0315587052424822e-12 0.0000000000000000e+00  3.9075499271303843e-26 -3.4889548392816303e-12 0.0000000000000000e+00  5.8166255002036187e-26 -5.1935212769316442e-12 0.0000000000000000e+00  -6.5486685176755472e-26 5.8471444106088278e-12 0.0000000000000000e+00  8.5000570110825010e-26 -7.5894910099753894e-12 0.0000000000000000e+00  -5.7145904938031832e-27 5.1024167393068712e-13 0.0000000000000000e+00  8.2591978178647355e-27 -7.3744337839811659e-13 0.0000000000000000e+00  5.8325330667359242e-26 -5.2077247502766005e-12 0.0000000000000000e+00  7.4356041741257587e-26 -6.6390673568054253e-12 0.0000000000000000e+00  3.6933776375641615e-26 -3.2977256905677571e-12 0.0000000000000000e+00  -7.5833038847900225e-26 6.7709447812510343e-12 0.0000000000000000e+00  6.2469141140155279e-26 -5.5777153549198776e-12 0.0000000000000000e+00  4.2200300393667577e-26 -3.7679606153043058e-12 0.0000000000000000e+00  -7.6366843956609686e-26 6.8186069212619450e-12 0.0000000000000000e+00  -6.8870780303952591e-26 6.1493019080382855e-12 0.0000000000000000e+00  -5.1916451650272900e-26 4.6354917685356666e-12 0.0000000000000000e+00  -2.1927169363749341e-26 1.9578228068753853e-12 0.0000000000000000e+00  4.7630659610197360e-26 -4.2528239803506201e-12 0.0000000000000000e+00  -5.7988074168311493e-26 5.1776119502772425e-12 0.0000000000000000e+00  7.0322773102476609e-26 -6.2789467595560947e-12 0.0000000000000000e+00  -4.4489769924969090e-26 3.9723816962778854e-12 0.0000000000000000e+00  -1.9059383033146502e-26 1.7017652469523993e-12 0.0000000000000000e+00  -8.2205115277433964e-26 7.3398917508274596e-12 0.0000000000000000e+00  1.3512783949920474e-26 -1.2065231112444097e-12 0.0000000000000000e+00  7.2119329289016021e-26 -6.4393568251459969e-12 0.0000000000000000e+00  2.1704208696718366e-26 -1.9379151994816533e-12 0.0000000000000000e+00  3.4935040582437919e-26 -3.1192635071487822e-12 0.0000000000000000e+00  1.6789286812961028e-26 -1.4990739610890985e-12 0.0000000000000000e+00  2.1797857539725664e-26 -1.9462768734230374e-12 0.0000000000000000e+00  2.8290397083707573e-27 -2.5259796970242774e-13 0.0000000000000000e+00  -3.7799944378860858e-26 3.3750636927127994e-12 0.0000000000000000e+00  -4.1793393824552123e-26 3.7316289325382348e-12 0.0000000000000000e+00  8.2834245121115757e-26 -7.3960652010349678e-12 0.0000000000000000e+00  -6.5051355479912666e-26 5.8082748969543192e-12 0.0000000000000000e+00  -7.7370166958249071e-26 6.9081911545337387e-12 0.0000000000000000e+00  2.2858965296320159e-26 -2.0410205647746260e-12 0.0000000000000000e+00  2.4927083016877149e-26 -2.2256776891594795e-12 0.0000000000000000e+00  8.5845554839605948e-26 -7.6649376098545206e-12 0.0000000000000000e+00  -5.6226376534645229e-26 5.0203143187958010e-12 0.0000000000000000e+00  -2.2143493498598694e-26 1.9771378546984680e-12 0.0000000000000000e+00  -6.3806972178019723e-26 5.6971669847324778e-12 0.0000000000000000e+00  -5.7830339216560464e-26 5.1635281859364571e-12 0.0000000000000000e+00  5.2308811477131680e-26 -4.6705246086064766e-12 0.0000000000000000e+00  -8.2746562453504056e-26 7.3882362321621468e-12 0.0000000000000000e+00  -7.1389578891752287e-26 6.3741992141754123e-12 0.0000000000000000e+00  5.3807930357713043e-26 -4.8043772316209158e-12 0.0000000000000000e+00  9.8177773453662777e-27 -8.7660509574756548e-13 0.0000000000000000e+00  1.5759149539880761e-26 -1.4070955477338735e-12 0.0000000000000000e+00  -8.5508700554629810e-26 7.6348607225564140e-12 0.0000000000000000e+00  8.7444757988340424e-26 -7.8077265100303674e-12 0.0000000000000000e+00  5.5610653826683865e-26 -4.9653379586300080e-12 0.0000000000000000e+00  -2.2422965242691337e-26 2.0020911966180316e-12 0.0000000000000000e+00  2.3583084696581302e-26 -2.1056753979276902e-12 0.0000000000000000e+00  4.6906137995864605e-26 -4.1881332344963045e-12 0.0000000000000000e+00  5.8087354008321372e-26 -5.1864764020361474e-12 0.0000000000000000e+00  -4.2594135005455600e-26 3.8031251352797040e-12 0.0000000000000000e+00  -7.0196410848311420e-27 6.2676641859129241e-13 0.0000000000000000e+00  6.5539710398529832e-26 -5.8518789017238138e-12 0.0000000000000000e+00  -4.2269816392378078e-26 3.7741675271706015e-12 0.0000000000000000e+00  -8.5142551678104507e-26 7.6021681935171588e-12 0.0000000000000000e+00  -5.5167413919766010e-26 4.9257621618508872e-12 0.0000000000000000e+00  4.2412200173729186e-26 -3.7868806234136224e-12 0.0000000000000000e+00  -2.2889198387369756e-26 2.0437200028186948e-12 0.0000000000000000e+00  4.1294849482787438e-26 -3.6871151393370370e-12 0.0000000000000000e+00  -2.0976670476848508e-26 1.8729551083679515e-12 0.0000000000000000e+00  7.5340996966959965e-26 -6.7270115767200689e-12 0.0000000000000000e+00  8.2274430169108658e-26 -7.3460807063431297e-12 0.0000000000000000e+00  -3.8878012162141709e-26 3.4713217029671578e-12 0.0000000000000000e+00  -4.3381670157674446e-26 3.8734422043300839e-12 0.0000000000000000e+00  -3.9368110008402519e-26 3.5150813294420750e-12 0.0000000000000000e+00  -6.4785290871540480e-27 5.7845186450764721e-13 0.0000000000000000e+00  -7.7004822509866979e-26 6.8755704508969855e-12 0.0000000000000000e+00  3.9447949501617761e-26 -3.5222100006404920e-12 0.0000000000000000e+00  8.7378928951953052e-26 -7.8018487979255433e-12 0.0000000000000000e+00  -2.2875523108934904e-26 2.0424989709761448e-12 0.0000000000000000e+00  -1.9448994397182587e-26 1.7365526835646572e-12 0.0000000000000000e+00  -7.0796983492908689e-26 6.3212878343315788e-12 0.0000000000000000e+00  6.2380922187114763e-26 -5.5698385024453886e-12 0.0000000000000000e+00  -1.5351170399907669e-29 1.3706680977644650e-15 0.0000000000000000e+00  3.4427178281347520e-26 -3.0739177363685916e-12 0.0000000000000000e+00  -1.3427514566738454e-26 1.1989096185790979e-12 0.0000000000000000e+00  -3.6179289812973664e-26 3.2303594484702067e-12 0.0000000000000000e+00  2.5649124311101627e-26 -2.2901469733560781e-12 0.0000000000000000e+00  -3.7485010760787646e-27 3.3469440476328980e-13 0.0000000000000000e+00  -6.8311367566017090e-27 6.0993533260476983e-13 0.0000000000000000e+00  -4.0917572683614164e-26 3.6534290255631577e-12 0.0000000000000000e+00  2.0164935444654262e-26 -1.8004772917922750e-12 0.0000000000000000e+00  3.8257932135071208e-27 -3.4159562885378073e-13 0.0000000000000000e+00  -3.0443784187446588e-26 2.7182503140744432e-12 0.0000000000000000e+00  3.4760680782393551e-26 -3.1036953511562696e-12 0.0000000000000000e+00  5.0207712202702388e-26 -4.4829226427190019e-12 0.0000000000000000e+00  -1.3322134479975769e-26 1.1895004908512126e-12 0.0000000000000000e+00  3.9099363972886235e-26 -3.4910856595558842e-12 0.0000000000000000e+00  4.7584606098997641e-27 -4.2487119760573271e-13 0.0000000000000000e+00  -3.8247541604887861e-26 3.4150285437554777e-12 0.0000000000000000e+00  1.8259580351743453e-26 -1.6303528405138498e-12 0.0000000000000000e+00  -2.2945642428752820e-27 2.0487597518943176e-13 0.0000000000000000e+00  -2.3709513986425085e-26 2.1169639570210692e-12 0.0000000000000000e+00  -5.3706237233273483e-26 4.7952973036545026e-12 0.0000000000000000e+00  -3.1768543267983601e-26 2.8365347810963706e-12 0.0000000000000000e+00  -4.4618746570599763e-26 3.9838977024791911e-12 0.0000000000000000e+00  -2.0194833357310853e-26 1.8031468025853011e-12 0.0000000000000000e+00  1.6745244372119371e-26 -1.4951415203020625e-12 0.0000000000000000e+00  -3.5311378882110760e-26 3.1528658246197414e-12 0.0000000000000000e+00  1.8557352836094500e-26 -1.6569402103403551e-12 0.0000000000000000e+00  -3.1737371677433567e-27 2.8337515467493813e-13 0.0000000000000000e+00  4.3898314132661731e-26 -3.9195720690875977e-12 0.0000000000000000e+00  -1.6208020443801206e-26 1.4471741223305148e-12 0.0000000000000000e+00  1.7253844065674391e-26 -1.5405531310345472e-12 0.0000000000000000e+00  5.5168821669016650e-26 -4.9258878563052671e-12 0.0000000000000000e+00  5.8083532974641051e-26 -5.1861352313742583e-12 0.0000000000000000e+00  5.1214051809878876e-26 -4.5727762212501819e-12 0.0000000000000000e+00  -4.3723351011509946e-26 3.9039500440432080e-12 0.0000000000000000e+00  4.9888153122805625e-26 -4.4543900015747087e-12 0.0000000000000000e+00  -5.8860878703712354e-26 5.2555425119929341e-12 0.0000000000000000e+00  2.2222930777742319e-26 -1.9842306131956333e-12 0.0000000000000000e+00  -2.8570204006193227e-26 2.5509629661948841e-12 0.0000000000000000e+00  -2.6396706198873546e-26 2.3568967140821448e-12 0.0000000000000000e+00  -1.4215518968707514e-26 1.2692685857809376e-12 0.0000000000000000e+00  </DataArray> 
</PointData> 
</Piece>
</UnstructuredGrid>
</VTKFile>