<?xml version="1.0"?>
<VTKFile type="UnstructuredGrid"  version="0.1"  >
<UnstructuredGrid>
<Piece  NumberOfPoints="201" NumberOfCells="657">
<Points>
<DataArray  type="Float64"  NumberOfComponents="3"  format="ascii">-2.089608793250199 -0.6817244332059194 840.6378897189546  -1.339118556611848 -0.2988565275297299 -840.9834591467783  1910.744098756804 0.155060049559811 -801.351825945968  3632.998089655075 0.6041692292336612 -675.9384205589454  5003.148127656849 -0.2690644623623173 -509.0215001448238  5880.057727938643 0.8918172016366449 -261.7089450230409  6181.347545944755 -0.7831977893063855 6.780719988907729  5878.158230446199 -1.328288622871846 265.5946751047952  5002.900868454128 -0.09144794935035433 505.0863875047452  3632.844862509614 0.1285870726570549 678.4056728304586  1909.929699695981 1.504081901535109 804.8835766047184  2421.393772235443 -1799.002125733722 -753.3999865119783  2404.149010662164 1396.177351418902 750.1021350655278  5881.678383535588 -1600.167030746445 -127.283219473014  4236.84067983931 -1746.88900572023 556.9427864989066  5353.804612808434 1619.148378189549 354.375584264399  5330.98334028771 1618.688026011095 -358.0305825069442  2703.187353744085 1609.80742580224 -727.6645616773063  931.2899462100753 -1610.25019883957 818.8855130796733  4208.212037453925 -1608.382269321472 -568.1072163593757  2929.351199034601 -3157.359351400188 -591.1630761407932  4351.764351144844 -3093.337671427058 -407.0966687542409  2984.711211814016 -4424.202620172483 -399.7764450653446  4204.411234388845 -4151.150944460134 -197.6986816990715  2639.388363850411 -5268.616258780542 -164.795401331659  3756.020479294205 -4725.017004393195 35.77071846577312  1972.185149124928 -5627.063017391794 72.8419213479245  2865.040911355871 -4893.115552587788 293.59938630587  1031.408606774466 -5479.395665818751 301.9710507526161  1832.425742001026 -4470.37711379455 511.6462937029135  -71.10583832409901 -4799.54614970564 502.4698374121732  4389.87824778778 -3839.251062462949 238.3136290865631  4206.555708421779 1607.869255135178 564.3140806774751  4264.770497582119 3114.407162631853 426.1321541550481  5166.673140688843 2986.832505538323 187.681705853653  685.5743660070506 -3566.758266784429 663.2923560448879  2509.268585384261 -3127.334004837787 624.2532722558421  2927.5092823157 2975.781290685812 607.1416702200939  2821.536290854915 4354.903886902282 432.9131881630124  5891.309816021866 -1562.211656664429 121.5919425801526  5195.830558587879 -3225.981604547795 12.27586851582407  5362.91247143021 -1621.002880728077 -344.879437923028  931.9116496057768 1608.331467723362 -793.3579649855395  4165.833781889297 1568.365381811304 -575.5160071712155  4231.951774412188 3098.133116351069 -433.5667043517516  1280.435744227952 -5318.681547927357 -344.7606719511366  -896.7895155164628 -5540.924210806347 279.1215113170783  1249.662843230166 -3239.324248794024 -691.8930996819631  5128.87605131566 3020.827901006417 -193.7539327315792  3834.300429918493 4363.887131221989 -237.8242539854101  2723.382620952461 4245.999786881114 -461.8075244996245  2148.395011309472 5289.00306142752 -255.3066222809557  950.3292083335737 4965.027919352171 -439.4209051357774  278.2375609561845 5726.260650067856 -229.3973736691397  -973.0750453600798 5109.102096698177 -415.2573522864705  -1606.597149988865 5623.77977618898 -179.2692556538395  -2832.211743654659 4802.322792588913 -315.57974756748  -308.7107167935325 5957.184716450498 12.90877812507264  -1974.06248341547 -4613.901025557603 463.3244080618001  -2729.519781816415 -5105.688485130411 233.1985430259013  -3324.219149253537 4990.80181958434 -85.73706481342816  -4391.187664716323 3904.151695054732 -216.1809128283122  -4680.767231506635 3898.151811857186 15.77548377995827  -5486.377641109571 2568.836515166584 -136.4590681192444  -5563.596925849512 2440.163112401914 124.3014439853663  -4878.078358133793 2438.835156141639 -395.9896072729038  -4497.660084222858 3606.120700822955 271.9604781770379  -5807.448125025574 1066.6260497822 -247.7142931862741  -5142.606079805305 2007.519966214867 381.2076481470986  -4941.38109992702 685.2258840441073 -502.5946447910554  -5549.801955039849 -774.0363096389608 -359.164233276509  -3820.907707520293 3021.018201259853 497.7915227628541  -852.8493445050804 -2470.632615705074 757.3980712312011  -3724.539649977067 -3945.285201496537 375.3059469167277  -4438.517313998568 -1047.264110339948 -558.1265628037783  -4798.048831141447 -2460.728652606118 -396.6865732121928  -5937.492780371569 677.6257221562053 212.9965509642354  -2066.748673763424 3979.893929744047 -574.7245840866944  -4228.789386275515 1290.521748624703 596.4827516169713  1329.18655510548 4019.695397498442 596.7499558725908  -5721.163231756129 -2014.892655457349 -144.8305357336804  -3596.795924854291 419.4538683747776 -678.6478591557545  -2802.501287524645 2301.23893100296 675.8435335624206  -3460.541838155726 -2648.867754130762 -603.3308683908214  -3621.430792425267 -3941.966967190025 -389.9259457638368  -3049.027643070739 4437.321764211612 378.1598985866513  -1557.794612768509 -5760.754812526688 52.3290653364046  -2950.925901584187 387.2218300581636 733.2546387151531  -4360.878286842543 -559.6703505757357 588.6167063740334  -2090.546843256715 -3952.223680840044 -565.3283931978294  -2096.599148121787 -5038.48997561979 -349.1976056093445  -1801.348415385905 -2502.685383580139 -717.7475300008047  3134.010851768296 5139.187938334967 -31.14161660676847  -4214.912927713659 -4233.305508741057 144.4443029971788  -5076.739658638522 -2860.554056251476 262.8682688910153  1106.426373312755 5174.74531755622 386.4544008481332  -399.9580891713851 4666.473357775873 517.8041372965  -138.4982677327864 3519.313459161747 690.5875887480181  -1674.372774115049 1485.905296926981 785.3874047259453  -2792.452293068824 -3227.84041981986 597.2264110976628  1457.184784897973 3929.384166802035 -596.6156759728893  -3464.330718446668 -4765.686592657245 -177.0813067192482  -457.1888939948862 3015.078772950363 -734.7504684707861  -1013.805610506261 1290.467289692188 -801.767180264689  -687.3090711380352 5569.71853456898 285.5797417798657  -1306.310105429437 -916.5310592688688 805.8803040592486  -446.6447068502158 -4886.531382849206 -474.6047493351056  -2821.961673970081 -1471.286804676344 728.7309280874873  -4349.542092916004 -2367.720465535687 487.3610271410229  -5417.440792159216 -1137.663858403821 379.970865811396  -5930.192758894322 -1477.20431404894 117.506178482048  -6154.557609877884 -191.1507454114756 -70.00992257231675  -2373.835116462446 2561.722579743064 -686.9349407425947  -3599.999290522904 2831.084460213284 -555.5202013060149  -526.7134856237271 -5612.630676070172 -266.8082733613845  -209.4896861619977 4409.577932801079 -578.4840800305168  2464.477970624342 5242.137162113357 221.5609455665887  5327.257968339202 -1549.430756459154 375.195336537521  309.5533247644503 -1689.39867423828 -813.2693994725544  977.0796598492888 -5816.903958161723 -126.8324856101152  -1881.18847465123 3810.561899747107 592.6987330849757  5906.953373513517 1500.316934685409 -123.5807621426212  3947.529608766264 4323.011783415112 214.9828822221467  4658.803843733259 3918.132063349898 -20.26865855962517  -4718.335425116749 -3544.530884625465 -214.2808020111612  -2045.851242866301 5605.793080318826 66.74215093898333  -3435.356137714318 4838.673162871798 155.9259963242495  -334.8258386711595 -3646.06958920742 -663.4421205198938  -1440.913838246836 -664.9710786379925 -804.5129557641073  -3038.43065811373 -1067.56805004228 -733.0376278712122  1427.757110959868 5793.552686030982 -41.83818232595748  165.60962949056 -5925.785613638984 91.44898551566527  3411.900757998405 -3768.434392640888 456.9242228360403  5917.46862644614 1518.95133377034 113.8134941582565  2703.949606270979 -1598.444945844573 727.3095508248416  -5226.888221367599 -3178.234993190412 21.56818467062326  -1107.674975150795 -3937.513462230284 625.8862351032637  3011.415832779221 2885.982605983578 -610.0228167189531  -5294.347072556875 476.0944885943869 424.950990254917  1386.891290061122 -4441.144314494192 -530.3863160734022  1514.574850251937 2864.721828116437 709.002180104561  880.8129876845788 5770.008934818343 176.4554228832774  -3843.230112663641 3737.787061279816 -382.8874616056547  5166.656636636807 -2873.186697994438 -225.4392263758177  -95.82860299168529 1550.892826182123 815.3061052754357  4681.485605741 -2798.736621527788 377.1613927248978  -6001.420967402087 1421.594166244416 -17.19999118528655  -3195.398610131645 -5105.053516994969 7.56123300374331  -1952.791075356704 -5577.996267312819 -140.118315208708  5545.837803924137 2634.193836226691 -12.31946603914711  -1379.803608964863 2941.24544268343 709.0721509853897  1717.918223228846 2666.997102373439 -711.4325807987162  -2081.234691368985 440.0007992973526 -784.3039800455142  -2258.694564620017 5217.952591386615 272.387819731925  5254.265534827611 -2672.488225614654 230.2087703033697  -420.8695525233151 -5921.872591961963 -92.07771978313652  -3961.809818062849 1549.830135654768 -591.8520632918912  -2708.972973943417 1318.291819164645 -727.2460150834928  -1727.026441024418 4796.654089111135 441.8010302633115  -4345.348043983985 -4226.346463167316 -50.31200115075838  0.4722460090630411 2.212203766028737 -3.638812050109124  -1968.96387917916 -2332.064196098993 19.14599856870914  2975.989968022331 909.686580439433 -7.533273228081688  -1184.804761006178 2450.304723458543 170.3415753108552  2218.835498174221 -1737.29112342265 160.4319515654757  -1446.844631781682 253.5045379318337 -355.074663027565  -3062.733679187011 462.6669082435486 -3.39049294469401  584.8979658082169 2770.723783804434 -143.4089401266206  2067.977439628363 -1365.594403677073 -246.215627787976  -1608.896155302279 -258.608870598552 346.2427306122625  1542.030029831112 2061.345053573511 266.1359527352538  -569.5330426529699 -2355.009057620364 -312.6090899084041  509.5183328575407 -3401.866250100804 4.675527912645777  1227.906425096081 901.8144939768139 -385.3439858136692  -485.02428
[...]
<PointData  Vectors="Centrifugal"> 
<DataArray  type="Float64"  Name="Centrifugal"  NumberOfComponents="3" format="ascii">-2.3062057634939550e-08 -7.6879250154602141e-09 0.0000000000000000e+00  -1.4941950538721656e-08 -3.4145179908932097e-09 0.0000000000000000e+00  4.4397074421915633e-05 2.0167383578091844e-09 0.0000000000000000e+00  8.4432296887109685e-05 7.3366933708308601e-09 0.0000000000000000e+00  1.1624106270126774e-04 -2.1786638359894319e-09 0.0000000000000000e+00  1.3663431215089501e-04 1.0907822241499170e-08 0.0000000000000000e+00  1.4365083666364849e-04 -7.7143091233273053e-09 0.0000000000000000e+00  1.3661254726349590e-04 -1.3828601762951450e-08 0.0000000000000000e+00  1.1623873084030290e-04 -1.7357872631957809e-10 0.0000000000000000e+00  8.4430502078852794e-05 1.9786601666345218e-09 0.0000000000000000e+00  4.4388229767365591e-05 1.6829336708113392e-08 0.0000000000000000e+00  5.6254712889008771e-05 -4.1801475669506593e-05 0.0000000000000000e+00  5.5871476290285038e-05 3.2457016382417217e-05 0.0000000000000000e+00  1.3671145910952075e-04 -3.7196441432374874e-05 0.0000000000000000e+00  9.8454074353121062e-05 -4.0598097922848656e-05 0.0000000000000000e+00  1.2439073624439753e-04 3.7630666205041048e-05 0.0000000000000000e+00  1.2386778675896865e-04 3.7625451849026104e-05 0.0000000000000000e+00  6.2808017002519766e-05 3.7411420065791292e-05 0.0000000000000000e+00  2.1640837270164732e-05 -3.7416079358507269e-05 0.0000000000000000e+00  9.7803509937433505e-05 -3.7394808645368536e-05 0.0000000000000000e+00  6.8080641434788990e-05 -7.3389254436125338e-05 0.0000000000000000e+00  1.0114626621652262e-04 -7.1916720921005300e-05 0.0000000000000000e+00  6.9363605141944577e-05 -1.0283030931346475e-04 0.0000000000000000e+00  9.7722033710506389e-05 -9.6495526406034407e-05 0.0000000000000000e+00  6.1331967489459518e-05 -1.2244107149324808e-04 0.0000000000000000e+00  8.7305245009722355e-05 -1.0984775223292785e-04 0.0000000000000000e+00  4.5851036854609776e-05 -1.3079438975380141e-04 0.0000000000000000e+00  6.6554744871630603e-05 -1.1368063463840722e-04 0.0000000000000000e+00  2.3968292766211070e-05 -1.2734646555909702e-04 0.0000000000000000e+00  4.2579941512980548e-05 -1.0388416358835515e-04 0.0000000000000000e+00  -1.6524137121807041e-06 -1.1156391389082147e-04 0.0000000000000000e+00  1.0202219505881561e-04 -8.9252144959352565e-05 0.0000000000000000e+00  9.7784106137343337e-05 3.7390035000642277e-05 0.0000000000000000e+00  9.9105814130314956e-05 7.2399634695202939e-05 0.0000000000000000e+00  1.2004224496868207e-04 6.9404572261347645e-05 0.0000000000000000e+00  1.5929711421115946e-05 -8.2901455785825882e-05 0.0000000000000000e+00  5.8317650906592342e-05 -7.2692408829016310e-05 0.0000000000000000e+00  6.8055135447672716e-05 6.9187407955769589e-05 0.0000000000000000e+00  6.5583373422734031e-05 1.0123142311419562e-04 0.0000000000000000e+00  1.3695548137669129e-04 -3.6301540658578973e-05 0.0000000000000000e+00  1.2076852353648312e-04 -7.4992233586161186e-05 0.0000000000000000e+00  1.2463672061989423e-04 -3.7667256924627539e-05 0.0000000000000000e+00  2.1647050047877360e-05 3.7394543921061384e-05 0.0000000000000000e+00  9.6823608515005777e-05 3.6461454855548099e-05 0.0000000000000000e+00  9.8345667778127304e-05 7.2015659727858044e-05 0.0000000000000000e+00  2.9759566870814907e-05 -1.2357710170485839e-04 0.0000000000000000e+00  -2.0829147649718074e-05 -1.2882011890051541e-04 0.0000000000000000e+00  2.9044062221055451e-05 -7.5283484439034545e-05 0.0000000000000000e+00  1.1919350561107236e-04 7.0213646521484379e-05 0.0000000000000000e+00  8.9121175018094096e-05 1.0143224596739992e-04 0.0000000000000000e+00  6.3289680750863771e-05 9.8705496811472018e-05 0.0000000000000000e+00  4.9947864988283286e-05 1.2293724302135531e-04 0.0000000000000000e+00  2.2079465790702537e-05 1.1542450020589092e-04 0.0000000000000000e+00  6.4632438105798801e-06 1.3309728036738170e-04 0.0000000000000000e+00  -2.2623200651127217e-05 1.1876558905476817e-04 0.0000000000000000e+00  -3.7340133541571395e-05 1.3071603359857448e-04 0.0000000000000000e+00  -6.5815169322686371e-05 1.1162969972302397e-04 0.0000000000000000e+00  -7.1794241922736009e-06 1.3844860799888477e-04 0.0000000000000000e+00  -4.5876709292937351e-05 -1.0724919041545036e-04 0.0000000000000000e+00  -6.3399785804112407e-05 -1.1864004090342529e-04 0.0000000000000000e+00  -7.7262617707736381e-05 1.1600786118154555e-04 0.0000000000000000e+00  -1.0206015267902990e-04 9.0745872851380935e-05 0.0000000000000000e+00  -1.0875078446460118e-04 9.0574032339766922e-05 0.0000000000000000e+00  -1.2752070824006956e-04 5.9724292940333875e-05 0.0000000000000000e+00  -1.2929102638583679e-04 5.6710350927688002e-05 0.0000000000000000e+00  -1.1333195987402821e-04 5.6652679973140652e-05 0.0000000000000000e+00  -1.0453917387347570e-04 8.3801157897259225e-05 0.0000000000000000e+00  -1.3494438964589399e-04 2.4776905654029236e-05 0.0000000000000000e+00  -1.1947226115211911e-04 4.6636492301490425e-05 0.0000000000000000e+00  -1.1484309289627990e-04 1.5910725687136751e-05 0.0000000000000000e+00  -1.2897236237518158e-04 -1.7990038937481402e-05 0.0000000000000000e+00  -8.8825238795309675e-05 7.0243974852828559e-05 0.0000000000000000e+00  -1.9830906972981095e-05 -5.7433191429803857e-05 0.0000000000000000e+00  -8.6550407164223117e-05 -9.1714146044910469e-05 0.0000000000000000e+00  -1.0317893040075266e-04 -2.4355420422551421e-05 0.0000000000000000e+00  -1.1150215009875115e-04 -5.7192966898596315e-05 0.0000000000000000e+00  -1.3800487974451547e-04 1.5731516782571386e-05 0.0000000000000000e+00  -4.8026224892089364e-05 9.2479226745008085e-05 0.0000000000000000e+00  -9.8274990898645215e-05 2.9999981270487326e-05 0.0000000000000000e+00  3.0891040883481943e-05 9.3427185401751838e-05 0.0000000000000000e+00  -1.3297265638475915e-04 -4.6842072702567772e-05 0.0000000000000000e+00  -8.3603032366794445e-05 9.7393185417734430e-06 0.0000000000000000e+00  -6.5137467168768822e-05 5.3476630370241826e-05 0.0000000000000000e+00  -8.0383610847847652e-05 -6.1544969302571305e-05 0.0000000000000000e+00  -8.4145742552405172e-05 -9.1613610088774806e-05 0.0000000000000000e+00  -7.0883241838666232e-05 1.0314348642210130e-04 0.0000000000000000e+00  -3.6201854426275454e-05 -1.3387828596348809e-04 0.0000000000000000e+00  -6.8593215953151614e-05 9.0005783530996953e-06 0.0000000000000000e+00  -1.0135994025116446e-04 -1.3008417658818085e-05 0.0000000000000000e+00  -4.8571520390279079e-05 -9.1864100525033406e-05 0.0000000000000000e+00  -4.8722897349585492e-05 -1.1711292147677498e-04 0.0000000000000000e+00  -4.1853422135572863e-05 -5.8171739583478142e-05 0.0000000000000000e+00  7.2832479212563494e-05 1.1943931135346409e-04 0.0000000000000000e+00  -9.7949453253604428e-05 -9.8390730364143240e-05 0.0000000000000000e+00  -1.1795790910273865e-04 -6.6466764480444562e-05 0.0000000000000000e+00  2.5718530622306422e-05 1.2028010302166392e-04 0.0000000000000000e+00  -9.2910285232329119e-06 1.0847336080347373e-04 0.0000000000000000e+00  -3.2182732249274122e-06 8.1769962967983859e-05 0.0000000000000000e+00  -3.8912915136556232e-05 3.4535906277075067e-05 0.0000000000000000e+00  -6.4894898270789720e-05 -7.5019683846020563e-05 0.0000000000000000e+00  3.3867557764871866e-05 9.1332951459933829e-05 0.0000000000000000e+00  -8.0511500655716837e-05 -1.1076051750844353e-04 0.0000000000000000e+00  -1.0631736001929540e-05 7.0072695165616426e-05 0.0000000000000000e+00  -2.3566383399587592e-05 3.0019100535420651e-05 0.0000000000000000e+00  -1.5979616497584415e-05 1.2947536206862358e-04 0.0000000000000000e+00  -3.0353568502766864e-05 -2.1283052057313673e-05 0.0000000000000000e+00  -1.0379123633207616e-05 -1.1358996314003715e-04 0.0000000000000000e+00  -6.5578497776280604e-05 -3.4184822927429146e-05 0.0000000000000000e+00  -1.0108856756750639e-04 -5.5023792190700901e-05 0.0000000000000000e+00  -1.2587724436576567e-04 -2.6443645052226664e-05 0.0000000000000000e+00  -1.3775938913555176e-04 -3.4332259030451137e-05 0.0000000000000000e+00  -1.4302978335117088e-04 -4.4558774148455333e-06 0.0000000000000000e+00  -5.5169440606857978e-05 5.9535983194754675e-05 0.0000000000000000e+00  -8.3670415513428234e-05 6.5825822803620241e-05 0.0000000000000000e+00  -1.2226457989833867e-05 -1.3046637166893858e-04 0.0000000000000000e+00  -4.8786125605250952e-06 1.0245769124373495e-04 0.0000000000000000e+00  5.7277080731632372e-05 1.2186024319752631e-04 0.0000000000000000e+00  1.2380501708045516e-04 -3.6003499131064436e-05 0.0000000000000000e+00  7.1857730736788054e-06 -3.9261004906094867e-05 0.0000000000000000e+00  2.2707798042002803e-05 -1.3520925316710939e-04 0.0000000000000000e+00  -4.3731373948180749e-05 8.8558212672205179e-05 0.0000000000000000e+00  1.3729628169440613e-04 3.4876643370385602e-05 0.0000000000000000e+00  9.1759472590316625e-05 1.0049788250041968e-04 0.0000000000000000e+00  1.0826856905306887e-04 9.1084418650285931e-05 0.0000000000000000e+00  -1.0966211689303293e-04 -8.2387907342285069e-05 0.0000000000000000e+00  -4.7571693275334963e-05 1.3032825245533081e-04 0.0000000000000000e+00  -7.9843608724225039e-05 1.1244072900871518e-04 0.0000000000000000e+00  -7.7854470429094290e-06 -8.4749068464612802e-05 0.0000000000000000e+00  -3.3479378856427000e-05 -1.5463199218266559e-05 0.0000000000000000e+00  -7.0588732896598657e-05 -2.4821114720425849e-05 0.0000000000000000e+00  3.3182342632075457e-05 1.3467874122870062e-04 0.0000000000000000e+00  3.8709297644196147e-06 -1.3772801407230088e-04 0.0000000000000000e+00  7.9307970705570766e-05 -8.7588414878894561e-05 0.0000000000000000e+00  1.3754010809959391e-04 3.5316765901793368e-05 0.0000000000000000e+00  6.2835743811336637e-05 -3.7144045454293164e-05 0.0000000000000000e+00  -1.2148373302250998e-04 -7.3878561794758866e-05 0.0000000000000000e+00  -2.5725379811201152e-05 -9.1489320185566108e-05 0.0000000000000000e+00  6.9986217475114554e-05 6.7086920008300473e-05 0.0000000000000000e+00  -1.2305860972943494e-04 1.1056042511603379e-05 0.0000000000000000e+00  3.2240536026558965e-05 -1.0322684828082842e-04 0.0000000000000000e+00  3.5191244407968503e-05 6.6576204484707806e-05 0.0000000000000000e+00  2.0465823063544184e-05 1.3410205040614436e-04 0.0000000000000000e+00  -8.9329444788104376e-05 8.6890359449820945e-05 0.0000000000000000e+00  1.2010390635989202e-04 -6.6800474804068496e-05 0.0000000000000000e+00  -2.2120595288667439e-06 3.6051195544255136e-05 0.0000000000000000e+00  1.0880431814714156e-04 -6.5040591064696360e-05 0.0000000000000000e+00  -1.3947133058710804e-04 3.3038708131767475e-05 0.0000000000000000e+00  -7.4253440298315530e-05 -1.1866424367862406e-04 0.0000000000000000e+00  -4.5360898338906884e-05 -1.2958456609745190e-04 0.0000000000000000e+00  1.2887523856233300e-04 6.1234005026241810e-05 0.0000000000000000e+00  -3.2064756708878246e-05 6.8327477563549048e-05 0.0000000000000000e+00  3.9909939202993223e-05 6.2005940779325739e-05 0.0000000000000000e+00  -4.8399550549596108e-05 1.0203863142375337e-05 0.0000000000000000e+00  -5.2506661848002688e-05 1.2128484464889680e-04 0.0000000000000000e+00  1.2214555793972634e-04 -6.2131800719278390e-05 0.0000000000000000e+00  -9.7814852661375522e-06 -1.3762430078747922e-04 0.0000000000000000e+00  -9.2099049494404926e-05 3.6029534228422713e-05 0.0000000000000000e+00  -6.2958275857854249e-05 3.0632656807830279e-05 0.0000000000000000e+00  -4.0153709981178259e-05 1.1150729177805079e-04 0.0000000000000000e+00  -1.0099545593836521e-04 -9.8251832223860035e-05 0.0000000000000000e+00  5.2951564109821923e-09 2.4189525541386813e-08 0.0000000000000000e+00  -4.5782246076676820e-05 -5.4223763942385560e-05 0.0000000000000000e+00  6.9214667550154035e-05 2.1148792574843644e-05 0.0000000000000000e+00  -2.7565344751128132e-05 5.6983412128217315e-05 0.0000000000000000e+00  5.1598154641593364e-05 -4.0398257976717965e-05 0.0000000000000000e+00  -3.3629642583771234e-05 5.9040636717953656e-06 0.0000000000000000e+00  -7.1208892616030406e-05 1.0759271474321685e-05 0.0000000000000000e+00  1.3601458427742735e-05 6.4446299333276210e-05 0.0000000000000000e+00  4.8088565533646637e-05 -3.1760477544517060e-05 0.0000000000000000e+00  -3.7408887767593838e-05 -6.0257756109044544e-06 0.0000000000000000e+00  3.5863575690900128e-05 4.7949896952170677e-05 0.0000000000000000e+00  -1.3244041331678288e-05 -5.4749124195401800e-05 0.0000000000000000e+00  1.1848653533283860e-05 -7.9078705404973085e-05 0.0000000000000000e+00  2.8556446724081997e-05 2.0982728606660513e-05 0.0000000000000000e+00  -1.1279024594250620e-05 -6.1582701884747989e-05 0.0000000000000000e+00  2.5047099999970513e-05 -7.4946236016345341e-06 0.0000000000000000e+00  -4.8456409272184948e-05 6.0240946108937233e-05 0.0000000000000000e+00  -7.1324103211394506e-05 -2.8759343188128107e-05 0.0000000000000000e+00  7.2633843495080946e-05 3.6139521075295659e-06 0.0000000000000000e+00  -9.6931249616085981e-06 3.7343167386087573e-05 0.0000000000000000e+00  1.4903962753029696e-05 8.4588910295636894e-05 0.0000000000000000e+00  6.1561209796958671e-05 5.0036281646675254e-05 0.0000000000000000e+00  6.1567082128172984e-05 7.0275751816780083e-05 0.0000000000000000e+00  -7.0706217179570155e-05 3.1807457409157055e-05 0.0000000000000000e+00  8.6888114449006220e-05 -2.6374349896628349e-05 0.0000000000000000e+00  -1.7356822933395037e-05 5.5616391733744459e-05 0.0000000000000000e+00  -8.3585762737476647e-05 -2.9228407738931135e-05 0.0000000000000000e+00  8.1715692259770476e-05 4.9987275894788727e-06 0.0000000000000000e+00  6.0511946163414392e-05 -6.9141042241213817e-05 0.0000000000000000e+00  -7.7775416514851343e-05 2.5528009725129986e-05 0.0000000000000000e+00  1.7978140576074628e-05 -2.7175376802091736e-05 0.0000000000000000e+00  -2.8021526264104213e-05 -8.6892554429770643e-05 0.0000000000000000e+00  -2.7160967222774645e-05 -9.1483193069126907e-05 0.0000000000000000e+00  3.2306863608168903e-05 -8.0663573465630881e-05 0.0000000000000000e+00  -7.0608260920819183e-05 6.8865506902842928e-05 0.0000000000000000e+00  2.7245434850362811e-05 -7.8575355833977625e-05 0.0000000000000000e+00  -1.9481315505312437e-05 9.2707667551261507e-05 0.0000000000000000e+00  -4.7220064585292835e-05 -3.5001780187509208e-05 0.0000000000000000e+00  8.1455833691030340e-05 4.4998981050998135e-05 0.0000000000000000e+00  1.0255990947761171e-05 4.1575449405823476e-05 0.0000000000000000e+00  3.0508909698759027e-05 2.2389947552515399e-05 0.0000000000000000e+00  </DataArray> 
</PointData> 
</Piece>
</UnstructuredGrid>
</VTKFile>