<?xml version="1.0"?>
<VTKFile type="UnstructuredGrid"  version="0.1"  >
<UnstructuredGrid>
<Piece  NumberOfPoints="201" NumberOfCells="657">
<Points>
<DataArray  type="Float64"  NumberOfComponents="3"  format="ascii">-0.03207701191466746 -0.4335692640654357 821.1915204273788  -0.2266896976059963 -0.3883094346846606 -822.263876691447  1906.239691067913 0.3320488977100459 -780.4752475801421  3625.515765226824 0.389742632642159 -663.7088989562285  4984.725894769167 -0.2701429902977929 -491.6257073009602  5849.085287472375 -0.09790716822062816 -261.8845051097732  6147.127439987935 -0.679614892594506 1.079588077060388  5850.044722925201 -1.166497753834864 261.3545896234168  4984.349865220232 -0.5218139378602475 490.597032195134  3624.881165624631 0.09368112401324946 663.5093815484865  1905.996437378818 0.5209225826193755 779.2167617350631  2414.287762909664 -1794.558960882976 -714.1954607845965  2399.820572770708 1393.401415064727 732.9227383907991  5848.432571911007 -1591.37412114457 -128.134008335217  4225.581784678564 -1741.534946004381 550.8151262857975  5328.477334188958 1612.668181023643 354.7820423512165  5306.940904031998 1610.026433107156 -360.2864057761766  2695.691582579934 1605.636110041901 -703.8011507300457  928.9819157795555 -1605.616361593287 781.1133754444256  4197.180480169995 -1604.827758104019 -561.8754790900543  2921.604833710357 -3149.304664549261 -579.7929726020539  4338.169582552555 -3084.0081051814 -405.9757858323084  2972.43008092815 -4405.452334403377 -393.2167240451238  4180.139341329483 -4124.555205835488 -197.6042397176565  2624.205653672384 -5236.6711485469 -166.6335770740125  3733.727334469464 -4694.274445425497 42.96454879809862  1960.681825963491 -5593.040896575919 75.50345506347973  2846.933571103646 -4861.56358728515 289.0760264476911  1027.377499595944 -5449.859820373435 303.9366473738294  1826.413618313226 -4454.999255413504 494.7378524056891  -71.11063520744348 -4785.123999924651 494.556961562068  4369.90549710742 -3820.923768463771 241.5498393813759  4198.417604404732 1604.362254531992 561.5336084266793  4250.5816210874 3103.570483427082 420.1703017828328  5134.791853525437 2965.81404817688 193.6901166989055  683.0419440452748 -3558.939837505901 649.7100790826172  2503.920212822215 -3121.220894972555 614.4663857939961  2921.017430837035 2969.103830965035 598.4751338215153  2812.355582934108 4338.975904040222 425.4387814653568  5862.884628287825 -1553.866018862531 127.7557481343983  5170.035436289909 -3208.751056903065 16.01091309182199  5343.131327094529 -1614.801165394365 -350.467519274901  929.8109301527887 1605.820350169881 -780.3288502901446  4156.399427905706 1564.767672832868 -569.8791215889801  4215.431381086959 3085.539785569789 -428.7018556724799  1274.719881977257 -5289.231115027233 -342.4052088592816  -893.5660353118325 -5516.366433791753 288.2420456839175  1247.184616831614 -3231.150973970236 -669.9092891286763  5103.361447353271 3005.308348525089 -199.0992323630182  3814.620180812908 4338.998342640018 -241.9943063693823  2714.336596226332 4230.873531968934 -456.1807275531924  2140.195548703035 5263.519198019312 -257.6224624382614  947.2763873758495 4947.604586046021 -444.3637896655168  276.3889133298933 5696.473416935194 -234.8988986464342  -969.7370712312708 5091.546372099965 -410.5003502540312  -1596.838878952342 5587.831023236999 -180.0480263695189  -2820.190729214733 4781.387125652439 -318.0407953030796  -307.7515209689461 5917.833682728236 16.02347651738319  -1967.981910795085 -4598.650790322293 456.4735583203519  -2712.76740130007 -5073.422119814316 232.4279665025864  -3306.817543485262 4961.523351954545 -87.93064632627292  -4369.164105262128 3885.070354704592 -221.154886438084  -4647.474173181905 3869.260451061074 19.80901400461927  -5460.541621686275 2555.022274239789 -137.0876503281702  -5533.586639189724 2425.02570810715 126.9185377573596  -4854.795937954566 2425.135699768515 -386.738743859277  -4476.984455455388 3587.478911039663 276.5174596991206  -5776.060590606366 1060.400738217641 -248.5804662863493  -5116.652745594242 1996.043995386864 372.3608113596142  -4925.626485345863 683.5316777992033 -491.9352844027378  -5524.626796014653 -771.190301997638 -354.278391060287  -3811.963358554045 3013.046782571256 497.8493238734936  -852.0894120433898 -2466.648648906847 738.0373022559229  -3711.549048931621 -3931.731821167173 374.8757606234623  -4428.765261900383 -1045.784758598729 -555.5489302859121  -4779.020222202512 -2450.182418770777 -400.1065128079917  -5909.042368840621 673.6205801190815 214.0487237860135  -2060.046905829613 3965.40192913677 -551.8185480485126  -4218.165257409039 1287.783663634111 576.4947398298798  1326.581353622828 4008.080799089254 583.696372542587  -5688.340634902868 -2003.260650687757 -145.8421160647019  -3589.537158134006 418.7142132225517 -664.7098517896835  -2796.592118345343 2295.339213805414 659.3270031306432  -3447.885895582537 -2639.147814810065 -579.3857362644551  -3607.92415813741 -3926.088982992647 -392.9007609677224  -3039.54112453101 4422.35946543119 377.2208623464273  -1547.332605072154 -5720.368332167137 55.60598021593863  -2945.663760906445 385.9681170543385 718.00436158399  -4351.561730789003 -558.1795783410032 578.7171753445003  -2083.547659034565 -3940.68563219014 -551.4020092961658  -2087.780730475656 -5014.949865579855 -352.9528052745036  -1797.445728893408 -2497.197179053614 -704.3560250860155  3116.996274309342 5105.035863891721 -25.04243165307988  -4193.378656263468 -4209.892545898887 150.4701058676791  -5049.02430630974 -2843.711434952629 264.1615955390881  1102.612721462468 5155.347758384554 389.4746169499824  -398.8631047791721 4653.791142348496 512.0632436663102  -138.3518400367341 3507.889307515031 663.5415699967219  -1671.08272090014 1483.559132258532 761.8859245459493  -2785.527846484045 -3219.854728073254 585.2545302137105  1453.973325362193 3920.097404949062 -588.8063784447289  -3447.634341191845 -4741.328819809718 -185.7535091614732  -456.6408358106997 3007.434439906642 -705.7796233878004  -1012.893426545434 1289.855469191377 -790.5471468003591  -684.6286717195693 5545.847991900986 287.9601648650041  -1303.681405311514 -914.1208866408276 791.8750754965766  -445.7637451888079 -4872.356857941997 -473.3842990763616  -2815.212451359926 -1466.031147549919 703.4029901833011  -4337.804508116116 -2359.959405602367 486.6891283741878  -5391.456366939836 -1132.277708431766 376.0821575991164  -5887.476361799689 -1466.59035775471 121.473614030156  -6121.074716508197 -190.4648570503393 -74.04049221890124  -2368.736233469981 2555.492327129157 -670.4572945845201  -3591.636243089011 2824.920927567684 -545.850407683331  -525.0051599032868 -5586.155958329966 -278.0738320473385  -209.622796907379 4393.235035868583 -557.3068771815908  2451.934841603971 5213.463427113814 223.2080081915445  5306.735346390909 -1542.502488000954 366.6051495075288  308.413737019325 -1685.040751714663 -785.1454948078239  972.4045772274593 -5782.889373316641 -131.7578320330113  -1876.034349098353 3799.935293814297 582.8739538492795  5875.340157245905 1491.517229203101 -128.9325344965649  3926.772477920203 4298.809482039536 221.2260585061915  4629.696880758096 3892.590486274235 -10.17941444191455  -4695.756349568885 -3525.619970620035 -214.2048387068997  -2035.166441902428 5574.360550877984 68.86173612630067  -3414.099257889261 4805.852271628513 158.2358843992839  -334.6561277959097 -3637.691350405783 -647.1812407084456  -1438.333105315947 -663.6063264124983 -792.7893314816764  -3029.599736563054 -1064.944657198529 -698.4095500191844  1419.529106671355 5761.318043205754 -45.07121949039802  165.3392597125603 -5889.794354601013 95.08650016693548  3400.89703652068 -3755.409620389291 454.7019802167415  5885.387001491837 1510.886257854258 114.1110937629107  2696.803742192302 -1593.83189024973 704.3947681944761  -5200.246257501711 -3160.41306765444 20.51947842259993  -1103.926209457278 -3924.824269364261 602.2077982519464  3003.864944526375 2878.781790807993 -597.2891613030299  -5276.511351281387 473.9475685929172 426.5655279416926  1383.4172848148 -4428.465669263906 -522.1333167892097  1511.414483298435 2858.186274455618 691.6775209789184  875.7201008010624 5734.588679579036 179.7683983433934  -3830.474117105391 3724.467115793153 -393.5749051486393  5144.363161751434 -2860.097328527674 -222.0094438695209  -94.86396764352568 1547.972822369001 790.8662248882537  4663.599728667826 -2787.73154108991 380.6638826690404  -5966.518147112146 1413.269539135375 -18.71589345028027  -3177.631603208861 -5076.537660213797 6.956942281152129  -1939.246749527439 -5535.755312924505 -145.2549516481564  5515.456554148015 2618.41084567924 -7.03269306672192  -1376.252607938372 2931.648050677263 690.6182939854031  1713.819552972382 2660.828225734077 -697.31358066247  -2079.276164268765 437.8838649052317 -769.7336649779658  -2249.601195714847 5193.766548741674 271.1579261630479  5231.919636327736 -2660.773784192027 234.2562384163785  -420.5699635994641 -5886.274417636032 -86.438513484213  -3954.123196457218 1546.35229564504 -592.2840610703403  -2703.084130663607 1314.055005674285 -714.9947898199496  -1722.07842557883 4779.185853377428 438.8972868835363  -4322.245939477797 -4202.739660835512 -47.69770265749288  0.08307231220716456 0.4045691526945816 0.6941818706418497  -1967.049261448522 -2329.857051193084 21.53677472088967  2973.581446595835 908.4762016435066 -4.067324230745946  -1185.45927683799 2449.004132860931 180.5565473331226  2217.47921672345 -1736.540974383167 163.0092215921861  -1446.868969776226 253.9187006403947 -363.2179428762313  -3058.818886285299 461.4443524131391 -0.4124824967010287  584.745255043333 2769.280294912728 -155.0229364099925  2067.505775740061 -1365.93069267702 -244.8516574099301  -1609.192627536732 -259.1148955696205 352.1638828595292  1542.432133671133 2060.988215293257 282.8814291837562  -569.5139756392689 -2353.670837498739 -309.7518352353881  508.819043384911 -3397.327942554324 1.841819839280225  1228.560535680578 902.9033678786852 -404.15
[...]
<PointData  Vectors="Centrifugal"> 
<DataArray  type="Float64"  Name="Centrifugal"  NumberOfComponents="3" format="ascii">-7.2800238403066583e-11 -5.0471258716120589e-09 0.0000000000000000e+00  -2.3978214468005873e-09 -5.0995742860508159e-09 0.0000000000000000e+00  4.4351510783816565e-05 3.9291757769866465e-09 0.0000000000000000e+00  8.4361154805569121e-05 6.2695239305682880e-09 0.0000000000000000e+00  1.1606150429017559e-04 -2.2963447993318943e-09 0.0000000000000000e+00  1.3634901100974657e-04 4.2483889248262552e-10 0.0000000000000000e+00  1.4334750945839666e-04 -5.5749324481341769e-09 0.0000000000000000e+00  1.3636002957265555e-04 -1.2054209368616307e-08 0.0000000000000000e+00  1.1605813027361528e-04 -5.1152686658839343e-09 0.0000000000000000e+00  8.4352615033009528e-05 2.1556144499012358e-09 0.0000000000000000e+00  4.4347769412012625e-05 6.9753031734531713e-09 0.0000000000000000e+00  5.6181301450293191e-05 -4.1757115358997975e-05 0.0000000000000000e+00  5.5829425268028227e-05 3.2430844309432244e-05 0.0000000000000000e+00  1.3641106053912338e-04 -3.7117411729753397e-05 0.0000000000000000e+00  9.8344836056216410e-05 -4.0545322134283596e-05 0.0000000000000000e+00  1.2415290724858346e-04 3.7570863177184610e-05 0.0000000000000000e+00  1.2364271054349474e-04 3.7544424414380198e-05 0.0000000000000000e+00  6.2731983816879952e-05 3.7370079746939998e-05 0.0000000000000000e+00  2.1617148081615295e-05 -3.7367948286797194e-05 0.0000000000000000e+00  9.7696729809297164e-05 -3.7361466813242565e-05 0.0000000000000000e+00  6.8004923017077614e-05 -7.3310963236609643e-05 0.0000000000000000e+00  1.0102285190563007e-04 -7.1833384202624727e-05 0.0000000000000000e+00  6.9248382337460640e-05 -1.0265584626608402e-04 0.0000000000000000e+00  9.7498847339391598e-05 -9.6251662632646965e-05 0.0000000000000000e+00  6.1193437289629090e-05 -1.2215363634565269e-04 0.0000000000000000e+00  8.7105579545471333e-05 -1.0957321926184455e-04 0.0000000000000000e+00  4.5747783890676451e-05 -1.3049148263067777e-04 0.0000000000000000e+00  6.6382260265644610e-05 -1.1338131871188084e-04 0.0000000000000000e+00  2.3932159128401063e-05 -1.2707118570537529e-04 0.0000000000000000e+00  4.2521141753812710e-05 -1.0373414124756941e-04 0.0000000000000000e+00  -1.6531473034084567e-06 -1.1142617237879407e-04 0.0000000000000000e+00  1.0184411807340252e-04 -8.9089415467622762e-05 0.0000000000000000e+00  9.7707118215297013e-05 3.7356883618339704e-05 0.0000000000000000e+00  9.8972376449961454e-05 7.2299256888634178e-05 0.0000000000000000e+00  1.1974577912470594e-04 6.9207248058797668e-05 0.0000000000000000e+00  1.5903430850009864e-05 -8.2826209946927068e-05 0.0000000000000000e+00  5.8265273358722050e-05 -7.2634577599831106e-05 0.0000000000000000e+00  6.7991380922460492e-05 6.9123220471529686e-05 0.0000000000000000e+00  6.5499255018071158e-05 1.0108416037047795e-04 0.0000000000000000e+00  1.3670646010304139e-04 -3.6226364781478524e-05 0.0000000000000000e+00  1.2054112386374871e-04 -7.4840011556962982e-05 0.0000000000000000e+00  1.2445632815109812e-04 -3.7611291766899381e-05 0.0000000000000000e+00  2.1626590564752692e-05 3.7369197874175020e-05 0.0000000000000000e+00  9.6731512087023426e-05 3.6425550130583839e-05 0.0000000000000000e+00  9.8188404991216699e-05 7.1896399961397773e-05 0.0000000000000000e+00  2.9706087368805760e-05 -1.2329714753544910e-04 0.0000000000000000e+00  -2.0800591440425478e-05 -1.2859844839421559e-04 0.0000000000000000e+00  2.9019913045899667e-05 -7.5202890010229241e-05 0.0000000000000000e+00  1.1896738747786113e-04 7.0076061666403386e-05 0.0000000000000000e+00  8.8943348952303988e-05 1.0120591573306239e-04 0.0000000000000000e+00  6.3203995117898034e-05 9.8563810198162288e-05 0.0000000000000000e+00  4.9875900219427146e-05 1.2270947556524027e-04 0.0000000000000000e+00  2.2051324744933265e-05 1.1526092420743830e-04 0.0000000000000000e+00  6.4469316966036336e-06 1.3282803727363447e-04 0.0000000000000000e+00  -2.2592424743917091e-05 1.1860553318371290e-04 0.0000000000000000e+00  -3.7250573618882995e-05 1.3038483213649197e-04 0.0000000000000000e+00  -6.5705359084782642e-05 1.1144062899742715e-04 0.0000000000000000e+00  -7.1707470299866291e-06 1.3808991760843895e-04 0.0000000000000000e+00  -4.5819227110565952e-05 -1.0710531307738698e-04 0.0000000000000000e+00  -6.3243147491206007e-05 -1.1833850764213067e-04 0.0000000000000000e+00  -7.7108157496636454e-05 1.1574699641568554e-04 0.0000000000000000e+00  -1.0186181911160110e-04 9.0576089125209567e-05 0.0000000000000000e+00  -1.0844384708734220e-04 9.0306880641721708e-05 0.0000000000000000e+00  -1.2729584835236861e-04 5.9604240397222616e-05 0.0000000000000000e+00  -1.2902276978831747e-04 5.6575002930411820e-05 0.0000000000000000e+00  -1.1311007424955353e-04 5.6521130550662386e-05 0.0000000000000000e+00  -1.0435256550406809e-04 8.3630529724461951e-05 0.0000000000000000e+00  -1.3465701707868425e-04 2.4717932378206486e-05 0.0000000000000000e+00  -1.1922392458254154e-04 4.6526448304527427e-05 0.0000000000000000e+00  -1.1469200049035150e-04 1.5895440233183000e-05 0.0000000000000000e+00  -1.2874001353286118e-04 -1.7964353861088292e-05 0.0000000000000000e+00  -8.8741161936559170e-05 7.0169155567113172e-05 0.0000000000000000e+00  -1.9824394964530254e-05 -5.7395967592897971e-05 0.0000000000000000e+00  -8.6432387757782740e-05 -9.1592193998128610e-05 0.0000000000000000e+00  -1.0308352167958041e-04 -2.4343909181805905e-05 0.0000000000000000e+00  -1.1132374045456727e-04 -5.7093392732361087e-05 0.0000000000000000e+00  -1.3775290217886023e-04 1.5694302933073943e-05 0.0000000000000000e+00  -4.7959630449530607e-05 9.2335242504495518e-05 0.0000000000000000e+00  -9.8169260991039274e-05 2.9973377706289276e-05 0.0000000000000000e+00  3.0866330239474430e-05 9.3312265616969897e-05 0.0000000000000000e+00  -1.3267911035871289e-04 -4.6738548301343997e-05 0.0000000000000000e+00  -8.3531954475227774e-05 9.7348072747762086e-06 0.0000000000000000e+00  -6.5080820508571575e-05 5.3418485170886711e-05 0.0000000000000000e+00  -8.0254065227540608e-05 -6.1446081496684219e-05 0.0000000000000000e+00  -8.4020682697528675e-05 -9.1466713889533623e-05 0.0000000000000000e+00  -7.0797834035260946e-05 1.0300902147620999e-04 0.0000000000000000e+00  -3.6106195967888296e-05 -1.3351244635360026e-04 0.0000000000000000e+00  -6.8542162612180999e-05 8.9868835833016756e-06 0.0000000000000000e+00  -1.0126956150227562e-04 -1.2994958493317728e-05 0.0000000000000000e+00  -4.8502332594493990e-05 -9.1752022779385364e-05 0.0000000000000000e+00  -4.8642049233702577e-05 -1.1689433731552524e-04 0.0000000000000000e+00  -4.1815259327285881e-05 -5.8116877576050658e-05 0.0000000000000000e+00  7.2679713059776969e-05 1.1912833388379565e-04 0.0000000000000000e+00  -9.7756173208294838e-05 -9.8178896775865786e-05 0.0000000000000000e+00  -1.1770013096418881e-04 -6.6310439472113127e-05 0.0000000000000000e+00  2.5682685407683286e-05 1.2010107727686081e-04 0.0000000000000000e+00  -9.2813348661957362e-06 1.0835531887201548e-04 0.0000000000000000e+00  -3.2177996570755984e-06 8.1654210371444780e-05 0.0000000000000000e+00  -3.8879446085881048e-05 3.4514394968685215e-05 0.0000000000000000e+00  -6.4827588134237676e-05 -7.4943843625167693e-05 0.0000000000000000e+00  3.3836099144367926e-05 9.1243517088539203e-05 0.0000000000000000e+00  -8.0363083828710903e-05 -1.1054186426856413e-04 0.0000000000000000e+00  -1.0628100182851746e-05 6.9996294387850182e-05 0.0000000000000000e+00  -2.3559087600678101e-05 3.0014856140330008e-05 0.0000000000000000e+00  -1.5955530598006455e-05 1.2926110437609908e-04 0.0000000000000000e+00  -3.0327899866674502e-05 -2.1259250369936600e-05 0.0000000000000000e+00  -1.0372354867552303e-05 -1.1345599890883505e-04 0.0000000000000000e+00  -6.5511270653768376e-05 -3.4130665959193837e-05 0.0000000000000000e+00  -1.0097704165926521e-04 -5.4948394550099131e-05 0.0000000000000000e+00  -1.2563186061179962e-04 -2.6392852970964579e-05 0.0000000000000000e+00  -1.3736308072305825e-04 -3.4234110942795293e-05 0.0000000000000000e+00  -1.4273473323959647e-04 -4.4498305441477208e-06 0.0000000000000000e+00  -5.5118538879719706e-05 5.9476082264568541e-05 0.0000000000000000e+00  -8.3590789472718770e-05 6.5768503553666590e-05 0.0000000000000000e+00  -1.2210987893088905e-05 -1.3022756528077424e-04 0.0000000000000000e+00  -4.8808652252413939e-06 1.0229487546094081e-04 0.0000000000000000e+00  5.7163354033135207e-05 1.2160171779804602e-04 0.0000000000000000e+00  1.2361690842197683e-04 -3.5940660947493742e-05 0.0000000000000000e+00  7.1753724461225582e-06 -3.9216275815535909e-05 0.0000000000000000e+00  2.2666750906580571e-05 -1.3490633713053937e-04 0.0000000000000000e+00  -4.3679154223019825e-05 8.8453932108167264e-05 0.0000000000000000e+00  1.3701634449086417e-04 3.4799002525971420e-05 0.0000000000000000e+00  9.1571401097533558e-05 1.0027932757145017e-04 0.0000000000000000e+00  1.0800642585168471e-04 9.0854844383466421e-05 0.0000000000000000e+00  -1.0946078524648844e-04 -8.2218870507244513e-05 0.0000000000000000e+00  -4.7476914526729015e-05 1.3004908746166652e-04 0.0000000000000000e+00  -7.9646373466831804e-05 1.1213675245342601e-04 0.0000000000000000e+00  -7.7848785827020576e-06 -8.4666910338021713e-05 0.0000000000000000e+00  -3.3454705088591803e-05 -1.5449404188697805e-05 0.0000000000000000e+00  -7.0498820186946803e-05 -2.4796185304118134e-05 0.0000000000000000e+00  3.3109168435718794e-05 1.3439360348870883e-04 0.0000000000000000e+00  3.8710894023712304e-06 -1.3740764716905943e-04 0.0000000000000000e+00  7.9204754635068568e-05 -8.7465527272778895e-05 0.0000000000000000e+00  1.3725592729930405e-04 3.5245882154371441e-05 0.0000000000000000e+00  6.2762606491050435e-05 -3.7097226958030983e-05 0.0000000000000000e+00  -1.2124925765353621e-04 -7.3722751805933341e-05 0.0000000000000000e+00  -2.5687561220913472e-05 -9.1362619084609434e-05 0.0000000000000000e+00  6.9911339940582399e-05 6.7016111315708113e-05 0.0000000000000000e+00  -1.2289526570253201e-04 1.1036043086282410e-05 0.0000000000000000e+00  3.2207643506910747e-05 -1.0310343201300215e-04 0.0000000000000000e+00  3.5159932730135654e-05 6.6510995114813209e-05 0.0000000000000000e+00  2.0420352481087793e-05 1.3377738939756992e-04 0.0000000000000000e+00  -8.9212317856957469e-05 8.6768350286275538e-05 0.0000000000000000e+00  1.1990666121892834e-04 -6.6685382055288694e-05 0.0000000000000000e+00  -2.2025430844740751e-06 3.6023222025281797e-05 0.0000000000000000e+00  1.0863985929538036e-04 -6.4939032433311824e-05 0.0000000000000000e+00  -1.3916043049360709e-04 3.2965528066009987e-05 0.0000000000000000e+00  -7.4096753689112087e-05 -1.1841057984141800e-04 0.0000000000000000e+00  -4.5235385714219045e-05 -1.2919261390720031e-04 0.0000000000000000e+00  1.2860745629563735e-04 6.1094129837391484e-05 0.0000000000000000e+00  -3.2028589757321584e-05 6.8229353696695115e-05 0.0000000000000000e+00  3.9869056597734062e-05 6.1944657881566906e-05 0.0000000000000000e+00  -4.8381129254697694e-05 1.0182585578747076e-05 0.0000000000000000e+00  -5.2426785704468415e-05 1.2106921427039546e-04 0.0000000000000000e+00  1.2194923405560561e-04 -6.2029600687778745e-05 0.0000000000000000e+00  -9.7798768798276459e-06 -1.3730790539835997e-04 0.0000000000000000e+00  -9.2025492946352046e-05 3.5994850952918957e-05 0.0000000000000000e+00  -6.2900514948183010e-05 3.0588899747133636e-05 0.0000000000000000e+00  -4.0109359276493726e-05 1.1134551886454820e-04 0.0000000000000000e+00  -1.0079033554905045e-04 -9.8042630784571407e-05 0.0000000000000000e+00  1.7226408668186236e-09 5.4253084171835064e-09 0.0000000000000000e+00  -4.5762782996154533e-05 -5.4201526747400030e-05 0.0000000000000000e+00  6.9192979070472886e-05 2.1137563226681817e-05 0.0000000000000000e+00  -2.7572551227536743e-05 5.6971693342003291e-05 0.0000000000000000e+00  5.1585701828985222e-05 -4.0391490455200277e-05 0.0000000000000000e+00  -3.3630438159839081e-05 5.9078701353392507e-06 0.0000000000000000e+00  -7.1170813062295196e-05 1.0747901568149332e-05 0.0000000000000000e+00  1.3600010194528193e-05 6.4432828599851244e-05 0.0000000000000000e+00  4.8085235279650103e-05 -3.1765794096589298e-05 0.0000000000000000e+00  -3.7412302775911338e-05 -6.0305408018772299e-06 0.0000000000000000e+00  3.5868347975942158e-05 4.7948798670004998e-05 0.0000000000000000e+00  -1.3245431772978437e-05 -5.4737688728727784e-05 0.0000000000000000e+00  1.1842163575591946e-05 -7.9034676092420075e-05 0.0000000000000000e+00  2.8563666073537197e-05 2.0994633398128973e-05 0.0000000000000000e+00  -1.1278839955849713e-05 -6.1568753576702738e-05 0.0000000000000000e+00  2.5039989050616528e-05 -7.5023992763467447e-06 0.0000000000000000e+00  -4.8439548781349595e-05 6.0212038991178781e-05 0.0000000000000000e+00  -7.1295382944922477e-05 -2.8742261489971918e-05 0.0000000000000000e+00  7.2602083789261466e-05 3.6138342872377782e-06 0.0000000000000000e+00  -9.6932079423704355e-06 3.7345077526621084e-05 0.0000000000000000e+00  1.4902296876851772e-05 8.4584956441465011e-05 0.0000000000000000e+00  6.1547114515383543e-05 5.0024493120037772e-05 0.0000000000000000e+00  6.1550945523473866e-05 7.0262918542776521e-05 0.0000000000000000e+00  -7.0689094786190426e-05 3.1797695941975883e-05 0.0000000000000000e+00  8.6892217668450573e-05 -2.6375537465718470e-05 0.0000000000000000e+00  -1.7346030868732635e-05 5.5603417462995585e-05 0.0000000000000000e+00  -8.3567040405891775e-05 -2.9216198259952678e-05 0.0000000000000000e+00  8.1690485367505301e-05 4.9998390310795650e-06 0.0000000000000000e+00  6.0508769790820156e-05 -6.9133028516234421e-05 0.0000000000000000e+00  -7.7757689316479311e-05 2.5520472608516591e-05 0.0000000000000000e+00  1.7975317440187095e-05 -2.7169489172498607e-05 0.0000000000000000e+00  -2.8013893220478736e-05 -8.6866584765489684e-05 0.0000000000000000e+00  -2.7155785995087616e-05 -9.1464810891906713e-05 0.0000000000000000e+00  3.2294085819161354e-05 -8.0634374020373525e-05 0.0000000000000000e+00  -7.0598984833322359e-05 6.8854578369634536e-05 0.0000000000000000e+00  2.7242335438608220e-05 -7.8551437863717317e-05 0.0000000000000000e+00  -1.9485663532213678e-05 9.2695632710637917e-05 0.0000000000000000e+00  -4.7207906446469029e-05 -3.4984558056967169e-05 0.0000000000000000e+00  8.1445947846751489e-05 4.4992280381610689e-05 0.0000000000000000e+00  1.0260471527308798e-05 4.1574948599170797e-05 0.0000000000000000e+00  3.0514095176493175e-05 2.2391617408496107e-05 0.0000000000000000e+00  </DataArray> 
</PointData> 
</Piece>
</UnstructuredGrid>
</VTKFile>