<?xml version="1.0"?>
<VTKFile type="UnstructuredGrid"  version="0.1"  >
<UnstructuredGrid>
<Piece  NumberOfPoints="201" NumberOfCells="657">
<Points>
<DataArray  type="Float64"  NumberOfComponents="3"  format="ascii">-2.089608793250199 -0.6817244332059194 840.6378897189546  -1.339118556611848 -0.2988565275297299 -840.9834591467783  1910.744098756804 0.155060049559811 -801.351825945968  3632.998089655075 0.6041692292336612 -675.9384205589454  5003.148127656849 -0.2690644623623173 -509.0215001448238  5880.057727938643 0.8918172016366449 -261.7089450230409  6181.347545944755 -0.7831977893063855 6.780719988907729  5878.158230446199 -1.328288622871846 265.5946751047952  5002.900868454128 -0.09144794935035433 505.0863875047452  3632.844862509614 0.1285870726570549 678.4056728304586  1909.929699695981 1.504081901535109 804.8835766047184  2421.393772235443 -1799.002125733722 -753.3999865119783  2404.149010662164 1396.177351418902 750.1021350655278  5881.678383535588 -1600.167030746445 -127.283219473014  4236.84067983931 -1746.88900572023 556.9427864989066  5353.804612808434 1619.148378189549 354.375584264399  5330.98334028771 1618.688026011095 -358.0305825069442  2703.187353744085 1609.80742580224 -727.6645616773063  931.2899462100753 -1610.25019883957 818.8855130796733  4208.212037453925 -1608.382269321472 -568.1072163593757  2929.351199034601 -3157.359351400188 -591.1630761407932  4351.764351144844 -3093.337671427058 -407.0966687542409  2984.711211814016 -4424.202620172483 -399.7764450653446  4204.411234388845 -4151.150944460134 -197.6986816990715  2639.388363850411 -5268.616258780542 -164.795401331659  3756.020479294205 -4725.017004393195 35.77071846577312  1972.185149124928 -5627.063017391794 72.8419213479245  2865.040911355871 -4893.115552587788 293.59938630587  1031.408606774466 -5479.395665818751 301.9710507526161  1832.425742001026 -4470.37711379455 511.6462937029135  -71.10583832409901 -4799.54614970564 502.4698374121732  4389.87824778778 -3839.251062462949 238.3136290865631  4206.555708421779 1607.869255135178 564.3140806774751  4264.770497582119 3114.407162631853 426.1321541550481  5166.673140688843 2986.832505538323 187.681705853653  685.5743660070506 -3566.758266784429 663.2923560448879  2509.268585384261 -3127.334004837787 624.2532722558421  2927.5092823157 2975.781290685812 607.1416702200939  2821.536290854915 4354.903886902282 432.9131881630124  5891.309816021866 -1562.211656664429 121.5919425801526  5195.830558587879 -3225.981604547795 12.27586851582407  5362.91247143021 -1621.002880728077 -344.879437923028  931.9116496057768 1608.331467723362 -793.3579649855395  4165.833781889297 1568.365381811304 -575.5160071712155  4231.951774412188 3098.133116351069 -433.5667043517516  1280.435744227952 -5318.681547927357 -344.7606719511366  -896.7895155164628 -5540.924210806347 279.1215113170783  1249.662843230166 -3239.324248794024 -691.8930996819631  5128.87605131566 3020.827901006417 -193.7539327315792  3834.300429918493 4363.887131221989 -237.8242539854101  2723.382620952461 4245.999786881114 -461.8075244996245  2148.395011309472 5289.00306142752 -255.3066222809557  950.3292083335737 4965.027919352171 -439.4209051357774  278.2375609561845 5726.260650067856 -229.3973736691397  -973.0750453600798 5109.102096698177 -415.2573522864705  -1606.597149988865 5623.77977618898 -179.2692556538395  -2832.211743654659 4802.322792588913 -315.57974756748  -308.7107167935325 5957.184716450498 12.90877812507264  -1974.06248341547 -4613.901025557603 463.3244080618001  -2729.519781816415 -5105.688485130411 233.1985430259013  -3324.219149253537 4990.80181958434 -85.73706481342816  -4391.187664716323 3904.151695054732 -216.1809128283122  -4680.767231506635 3898.151811857186 15.77548377995827  -5486.377641109571 2568.836515166584 -136.4590681192444  -5563.596925849512 2440.163112401914 124.3014439853663  -4878.078358133793 2438.835156141639 -395.9896072729038  -4497.660084222858 3606.120700822955 271.9604781770379  -5807.448125025574 1066.6260497822 -247.7142931862741  -5142.606079805305 2007.519966214867 381.2076481470986  -4941.38109992702 685.2258840441073 -502.5946447910554  -5549.801955039849 -774.0363096389608 -359.164233276509  -3820.907707520293 3021.018201259853 497.7915227628541  -852.8493445050804 -2470.632615705074 757.3980712312011  -3724.539649977067 -3945.285201496537 375.3059469167277  -4438.517313998568 -1047.264110339948 -558.1265628037783  -4798.048831141447 -2460.728652606118 -396.6865732121928  -5937.492780371569 677.6257221562053 212.9965509642354  -2066.748673763424 3979.893929744047 -574.7245840866944  -4228.789386275515 1290.521748624703 596.4827516169713  1329.18655510548 4019.695397498442 596.7499558725908  -5721.163231756129 -2014.892655457349 -144.8305357336804  -3596.795924854291 419.4538683747776 -678.6478591557545  -2802.501287524645 2301.23893100296 675.8435335624206  -3460.541838155726 -2648.867754130762 -603.3308683908214  -3621.430792425267 -3941.966967190025 -389.9259457638368  -3049.027643070739 4437.321764211612 378.1598985866513  -1557.794612768509 -5760.754812526688 52.3290653364046  -2950.925901584187 387.2218300581636 733.2546387151531  -4360.878286842543 -559.6703505757357 588.6167063740334  -2090.546843256715 -3952.223680840044 -565.3283931978294  -2096.599148121787 -5038.48997561979 -349.1976056093445  -1801.348415385905 -2502.685383580139 -717.7475300008047  3134.010851768296 5139.187938334967 -31.14161660676847  -4214.912927713659 -4233.305508741057 144.4443029971788  -5076.739658638522 -2860.554056251476 262.8682688910153  1106.426373312755 5174.74531755622 386.4544008481332  -399.9580891713851 4666.473357775873 517.8041372965  -138.4982677327864 3519.313459161747 690.5875887480181  -1674.372774115049 1485.905296926981 785.3874047259453  -2792.452293068824 -3227.84041981986 597.2264110976628  1457.184784897973 3929.384166802035 -596.6156759728893  -3464.330718446668 -4765.686592657245 -177.0813067192482  -457.1888939948862 3015.078772950363 -734.7504684707861  -1013.805610506261 1290.467289692188 -801.767180264689  -687.3090711380352 5569.71853456898 285.5797417798657  -1306.310105429437 -916.5310592688688 805.8803040592486  -446.6447068502158 -4886.531382849206 -474.6047493351056  -2821.961673970081 -1471.286804676344 728.7309280874873  -4349.542092916004 -2367.720465535687 487.3610271410229  -5417.440792159216 -1137.663858403821 379.970865811396  -5930.192758894322 -1477.20431404894 117.506178482048  -6154.557609877884 -191.1507454114756 -70.00992257231675  -2373.835116462446 2561.722579743064 -686.9349407425947  -3599.999290522904 2831.084460213284 -555.5202013060149  -526.7134856237271 -5612.630676070172 -266.8082733613845  -209.4896861619977 4409.577932801079 -578.4840800305168  2464.477970624342 5242.137162113357 221.5609455665887  5327.257968339202 -1549.430756459154 375.195336537521  309.5533247644503 -1689.39867423828 -813.2693994725544  977.0796598492888 -5816.903958161723 -126.8324856101152  -1881.18847465123 3810.561899747107 592.6987330849757  5906.953373513517 1500.316934685409 -123.5807621426212  3947.529608766264 4323.011783415112 214.9828822221467  4658.803843733259 3918.132063349898 -20.26865855962517  -4718.335425116749 -3544.530884625465 -214.2808020111612  -2045.851242866301 5605.793080318826 66.74215093898333  -3435.356137714318 4838.673162871798 155.9259963242495  -334.8258386711595 -3646.06958920742 -663.4421205198938  -1440.913838246836 -664.9710786379925 -804.5129557641073  -3038.43065811373 -1067.56805004228 -733.0376278712122  1427.757110959868 5793.552686030982 -41.83818232595748  165.60962949056 -5925.785613638984 91.44898551566527  3411.900757998405 -3768.434392640888 456.9242228360403  5917.46862644614 1518.95133377034 113.8134941582565  2703.949606270979 -1598.444945844573 727.3095508248416  -5226.888221367599 -3178.234993190412 21.56818467062326  -1107.674975150795 -3937.513462230284 625.8862351032637  3011.415832779221 2885.982605983578 -610.0228167189531  -5294.347072556875 476.0944885943869 424.950990254917  1386.891290061122 -4441.144314494192 -530.3863160734022  1514.574850251937 2864.721828116437 709.002180104561  880.8129876845788 5770.008934818343 176.4554228832774  -3843.230112663641 3737.787061279816 -382.8874616056547  5166.656636636807 -2873.186697994438 -225.4392263758177  -95.82860299168529 1550.892826182123 815.3061052754357  4681.485605741 -2798.736621527788 377.1613927248978  -6001.420967402087 1421.594166244416 -17.19999118528655  -3195.398610131645 -5105.053516994969 7.56123300374331  -1952.791075356704 -5577.996267312819 -140.118315208708  5545.837803924137 2634.193836226691 -12.31946603914711  -1379.803608964863 2941.24544268343 709.0721509853897  1717.918223228846 2666.997102373439 -711.4325807987162  -2081.234691368985 440.0007992973526 -784.3039800455142  -2258.694564620017 5217.952591386615 272.387819731925  5254.265534827611 -2672.488225614654 230.2087703033697  -420.8695525233151 -5921.872591961963 -92.07771978313652  -3961.809818062849 1549.830135654768 -591.8520632918912  -2708.972973943417 1318.291819164645 -727.2460150834928  -1727.026441024418 4796.654089111135 441.8010302633115  -4345.348043983985 -4226.346463167316 -50.31200115075838  0.4722460090630411 2.212203766028737 -3.638812050109124  -1968.96387917916 -2332.064196098993 19.14599856870914  2975.989968022331 909.686580439433 -7.533273228081688  -1184.804761006178 2450.304723458543 170.3415753108552  2218.835498174221 -1737.29112342265 160.4319515654757  -1446.844631781682 253.5045379318337 -355.074663027565  -3062.733679187011 462.6669082435486 -3.39049294469401  584.8979658082169 2770.723783804434 -143.4089401266206  2067.977439628363 -1365.594403677073 -246.215627787976  -1608.896155302279 -258.608870598552 346.2427306122625  1542.030029831112 2061.345053573511 266.1359527352538  -569.5330426529699 -2355.009057620364 -312.6090899084041  509.5183328575407 -3401.866250100804 4.675527912645777  1227.906425096081 901.8144939768139 -385.3439858136692  -485.02428
[...]
<PointData  Vectors="Forcing"> 
<DataArray  type="Float64"  Name="Forcing"  NumberOfComponents="3" format="ascii">-5.1386903329140982e-06 -1.8575941935118358e-06 -2.9614767701583144e-04  -3.0365421933205835e-06 -9.2343643967412363e-07 2.9598186032815091e-04  3.2595053603564745e-05 3.3147693095966110e-07 2.7515645817904292e-04  5.7836388237105109e-05 1.5693404075275407e-06 2.5308555459311173e-04  8.7659843534054288e-05 -3.8430535907801939e-07 1.2817192083874413e-04  9.7653774760912254e-05 2.6154407853263381e-06 8.7088610974106625e-05  9.9597155281201189e-05 -1.4738438547423230e-06 1.8521726800342005e-05  9.3109978661216024e-05 -2.8849706000620795e-06 -7.7110819296111923e-05  8.6406691787983884e-05 7.1368696935769883e-08 -1.4183866620953890e-04  5.7598764277208184e-05 4.6966700913036112e-07 -2.4403003869221922e-04  3.0327806160385351e-05 3.9481089152395331e-06 -2.6607294700019529e-04  4.3117323043945463e-05 -3.0305267299808663e-05 1.9283625160522377e-04  3.8667261307829400e-05 2.0552660880819006e-05 -2.6027583843866119e-04  9.0430210838982842e-05 -2.3278863300556282e-05 3.6346851498882953e-05  7.0200985420716894e-05 -2.7385324025109027e-05 -2.0733844744043640e-04  9.2575972038662507e-05 2.6250520130105728e-05 -1.2110003612100646e-04  9.0339728389086612e-05 2.5045419204677635e-05 1.3138784723923914e-04  4.6236020488979609e-05 2.6108682034994116e-05 2.3500673980920503e-04  1.5699156553159372e-05 -2.7047905804739809e-05 -2.2795271399371657e-04  6.6154096021565066e-05 -2.1719608511049116e-05 2.1737851027840393e-04  4.6480871353714350e-05 -4.7312695369220006e-05 2.1334648118661987e-04  6.7910886764368077e-05 -4.3549666593262277e-05 1.4369577796611668e-04  4.8826295881664916e-05 -6.8294628807132672e-05 1.1327709847497983e-04  6.5505896536229713e-05 -6.1381409631896370e-05 5.4401701510969265e-05  4.4387257549960180e-05 -8.4242338396183441e-05 5.5311986768889669e-05  5.7393749553719803e-05 -6.7118685449158116e-05 -3.0326386815379129e-05  2.8537105427365217e-05 -8.5135206221853508e-05 -3.2351224683379136e-05  5.2486357305863321e-05 -8.5331635870497573e-05 -7.2045218003861252e-05  1.7481269922468993e-05 -8.6388808349365878e-05 -1.0563163460872133e-04  3.1374796911478465e-05 -7.3609673565830762e-05 -1.3332489053226893e-04  -4.3921092919108143e-07 -7.2323090122913125e-05 -1.6623893147514612e-04  7.0766760440919103e-05 -5.5512905757770280e-05 -8.5429550936779770e-05  6.2360906824651536e-05 2.1418722249642262e-05 -2.2477713473863510e-04  7.0143120272079008e-05 4.6513462272329967e-05 -1.3263630309181886e-04  8.9065129364205263e-05 5.0396825175640406e-05 -7.5689946889287695e-05  1.2171927549296623e-05 -5.4734061526742558e-05 -2.4982409809520221e-04  3.9896623302977373e-05 -4.6841571155385785e-05 -2.3826213392594744e-04  4.2503726544618091e-05 4.1617887655201524e-05 -2.2259430652589411e-04  4.2601516573005862e-05 6.5464280341552973e-05 -1.3396209553032500e-04  8.5973412361476276e-05 -2.5178427739037829e-05 -5.2398859567834569e-05  8.0462979846092708e-05 -4.7153443744440024e-05 -1.0797183468168329e-05  8.5472599530637603e-05 -2.6358696478149165e-05 1.3801375105130622e-04  1.7033646722549738e-05 2.2380218122465544e-05 2.9880800478496243e-04  6.4513322130499125e-05 2.2784595082229001e-05 2.1899648177576620e-04  6.8807028761842605e-05 4.7131963600569874e-05 1.3954445454621866e-04  2.0872346419984525e-05 -9.1467661300018567e-05 1.0316717604141815e-04  -1.6116324387011304e-05 -7.8392581836962146e-05 -1.1809182831434083e-04  2.0116977515942816e-05 -5.1414337123974115e-05 2.2301639888737846e-04  8.2303235983199630e-05 4.6928824926309311e-05 7.8919443299835880e-05  5.8435218461823818e-05 6.7005810848865834e-05 8.2602059604968862e-05  4.3816732859672811e-05 6.2820324952345412e-05 1.5345358749188303e-04  3.0072715711334534e-05 8.1020714507516243e-05 9.0651784857157249e-05  1.5825310552615170e-05 7.1252391214573609e-05 1.8163962939795011e-04  4.5503981609842792e-06 8.8186793474548232e-05 8.8849212525343938e-05  -1.4054710100529389e-05 7.4810528576674425e-05 1.4104198752878106e-04  -2.5688231546209488e-05 8.6195068440994040e-05 4.9552545064083213e-05  -4.6714040234306691e-05 7.1662394380412109e-05 1.1437589208293485e-04  -4.4279552639690521e-06 9.5309769272315084e-05 -1.3084712614982374e-05  -3.1020334696127934e-05 -6.9336115146224954e-05 -1.5435860279133280e-04  -5.0182681087141345e-05 -8.5614012781105707e-05 -6.4458291356149844e-05  -5.2180802500999347e-05 7.5309298696270185e-05 2.8856821133232579e-05  -6.8965278166378076e-05 5.9544813713562552e-05 7.7546446682179301e-05  -8.2001159632031121e-05 6.6207537717053757e-05 -1.7185373164803283e-05  -8.4214347965337225e-05 3.5328815527661364e-05 4.6326822958312380e-05  -9.0426513409305471e-05 3.8163847647389149e-05 -5.1133155849748376e-05  -8.6056680716434247e-05 4.4194073841157788e-05 1.0661481691745376e-04  -7.0005731894932346e-05 5.8691541761192634e-05 -9.5249179632729802e-05  -9.6888260485653607e-05 1.8636827400067225e-05 8.4796266238495449e-05  -9.1320611596816417e-05 3.5495859096418426e-05 -1.0470687067391382e-04  -7.9102560743193255e-05 1.3423186498784154e-05 1.4945463629047618e-04  -9.0582105501781351e-05 -1.2844465701046171e-05 1.0843895555967421e-04  -5.5580300349306074e-05 4.0448647054440156e-05 -1.9906896506573606e-04  -1.0938860962588491e-05 -3.6319170174903577e-05 -2.6463402511429381e-04  -6.0861723951661401e-05 -5.8475990384184898e-05 -1.3120412310144478e-04  -6.4251031569215102e-05 -1.3625002668251700e-05 2.2729553032005054e-04  -7.7044133356104089e-05 -3.8581150757285841e-05 1.5386462394905817e-04  -9.1440489953813108e-05 1.3611817606470995e-05 -7.3436306774767583e-05  -3.4601822750626827e-05 6.6522187685328567e-05 1.5587303250395526e-04  -6.8218540892004434e-05 1.8515461195840908e-05 -1.7557215596051006e-04  2.0799425533545384e-05 6.2558193115328843e-05 -2.0267659284303101e-04  -8.8851045664368330e-05 -2.9701592055314079e-05 4.3600257855601593e-05  -5.4586254769035562e-05 8.0726088604381701e-06 2.5004971231165656e-04  -4.3541557017018388e-05 3.7475866333010534e-05 -2.3640446572527048e-04  -6.3397693093722880e-05 -4.6151167852683886e-05 1.6595272295090679e-04  -6.0543979914293886e-05 -6.2663241219209910e-05 1.5399958964480413e-04  -4.4325576869664633e-05 6.6758778523369713e-05 -1.3346372573598474e-04  -2.4608389441151797e-05 -9.3391741813330083e-05 -2.3491098209114526e-05  -4.4372901991550151e-05 5.5920808229761329e-06 -2.6776921036179570e-04  -6.6923725599014137e-05 -9.0479476048587285e-06 -2.1381786032584137e-04  -3.5706996705520411e-05 -6.0797345899263084e-05 1.8497046774970077e-04  -3.3338917651199723e-05 -7.7086288334660971e-05 1.1880851523438858e-04  -3.0411941136376057e-05 -3.8627157151683784e-05 2.6809597660345955e-04  5.0433102517074999e-05 8.2377508930545914e-05 -1.2766247949732240e-05  -6.8074064358157962e-05 -6.6628049787028300e-05 -6.5069130986418187e-05  -8.6630602725221568e-05 -4.9264822369482327e-05 -8.4690360771358280e-05  1.6156866712059360e-05 7.8957985658913764e-05 -1.4719952850974593e-04  -7.6343414441730809e-06 6.9184735453370073e-05 -1.9346964737364936e-04  -2.5954025973047080e-06 6.0366812755402243e-05 -2.0459738585113310e-04  -2.6713924259760472e-05 2.3053852477119566e-05 -2.6419404568236754e-04  -4.4504879846751831e-05 -5.0996458850447842e-05 -2.0873972977444101e-04  2.2319920908847949e-05 6.0048639134234935e-05 2.2336913218176874e-04  -5.4637619531568068e-05 -7.5326970658786153e-05 8.2696133961714791e-05  -6.2862664686346710e-06 4.7952064249720227e-05 2.2054418311915548e-04  -1.5048138499734802e-05 1.4724722000578673e-05 3.0580500579756049e-04  -1.0114417607126917e-05 8.1979687904518690e-05 -9.9300469505547424e-05  -2.1610891557803226e-05 -1.8314869159268335e-05 -3.0182581692297141e-04  -6.6162010492029154e-06 -7.2622425776312059e-05 1.7779764563614564e-04  -4.5877099863131180e-05 -2.5663746895486819e-05 -2.2148587448608096e-04  -6.7922126215683404e-05 -3.8689083950945589e-05 -1.9874541797690551e-04  -9.2279032835140072e-05 -1.8067189745629756e-05 -1.0671474930158653e-04  -1.0676312850937656e-04 -2.3865286511632876e-05 -4.3058414458357831e-05  -9.8987487388678359e-05 -9.5625211016906882e-07 3.3960463893919921e-05  -3.7989661790494101e-05 4.0629684465289683e-05 2.4163046091432461e-04  -5.6809290066845466e-05 3.8985628365573496e-05 1.8955527217388689e-04  -1.0667287777088082e-05 -8.3793715472453936e-05 1.2008279963108711e-04  -1.5627417341436126e-06 7.5196380043991262e-05 1.6447352473501951e-04  3.8627106034057167e-05 7.7817556248559302e-05 -7.0347228137447257e-05  8.6179986778985918e-05 -2.5487691958449031e-05 -1.0242686205218724e-04  6.9425499050085246e-06 -2.7372153043508772e-05 2.5996037714682299e-04  1.6246169106925915e-05 -8.8098312920659757e-05 5.2388836362796653e-05  -2.7770327684729733e-05 6.0627817458144064e-05 -2.1290174322064623e-04  9.0864291945404351e-05 2.2813953707451025e-05 5.4703088017490548e-05  5.8712196292776687e-05 6.3035680778665302e-05 -7.9957168615637790e-05  7.4686926730095789e-05 5.7599080873162173e-05 -2.6330165975986556e-05  -7.3762881687834073e-05 -5.4864208379980780e-05 6.8983149174313174e-05  -2.7840133132053631e-05 7.9299245450845739e-05 -1.9467471847337412e-05  -5.4506729869257571e-05 7.9621192326776862e-05 -4.7928669805670413e-05  -3.9824187869368984e-06 -5.5379034813271758e-05 2.3352815137004380e-04  -2.4487623111867118e-05 -9.0893643506695713e-06 3.0626034393894870e-04  -5.3482834631964264e-05 -1.5355382885893595e-05 2.0562893720255340e-04  2.2051109698318893e-05 8.5425428531604668e-05 1.7560394615996036e-05  -1.1485228710542861e-06 -9.2696799241009836e-05 -3.7590325282396285e-05  5.2111562040699757e-05 -5.8133760160580716e-05 -1.6117970538584409e-04  9.1181402491351330e-05 2.1596838099978562e-05 -3.7388892031054547e-05  4.4450228276371245e-05 -2.6127274762312595e-05 -2.3931125539256045e-04  -8.1208928807774763e-05 -4.8250936498832638e-05 -4.9335405457875190e-06  -2.0778233842961423e-05 -6.7413713824550630e-05 -1.7766721702309381e-04  4.7817844495159898e-05 4.3175626333323136e-05 2.1830702710393820e-04  -8.0703448665185980e-05 8.7596640436417226e-06 -1.6250807258562629e-04  2.0906923029213656e-05 -6.7876748870529605e-05 1.7997860620207537e-04  2.5588133367359887e-05 4.5971883500340444e-05 -2.4662504966388666e-04  1.4486301759840639e-05 9.1556015987514930e-05 -6.1493691443292246e-05  -5.8640946479357055e-05 5.3878553714656904e-05 1.7435606623559811e-04  7.7398695301285711e-05 -4.0101450805381863e-05 6.0231623543346039e-05  -4.6283464863521968e-06 2.3145117003270512e-05 -2.7385474293001815e-04  7.3928034864202062e-05 -4.4641274059458716e-05 -1.4707697844550550e-04  -9.6447050971026858e-05 2.2040288145875516e-05 1.2578224404081157e-05  -5.2022519319012568e-05 -7.7343823314025335e-05 -4.5115318478608819e-06  -3.5307719858999957e-05 -1.0024312377958544e-04 4.5712508967990121e-05  9.0829517854648480e-05 3.9734507010033007e-05 -1.5968141794388118e-05  -2.2702558192890249e-05 5.2687143840017864e-05 -2.4268273840924017e-04  3.0237920260496837e-05 3.7870535209201768e-05 2.6140724944076276e-04  -2.6588882793773988e-05 1.1081377018224021e-05 2.9146833847502516e-04  -3.3743389440942648e-05 7.9646918525435781e-05 -7.8194758154431939e-05  7.7302966172118032e-05 -3.7570974583757820e-05 -8.3884472688162509e-05  -5.8987430940194079e-06 -9.5594910539424031e-05 7.2185580658446473e-06  -5.7953919707459041e-05 2.2090980322910570e-05 2.5692481897074187e-04  -4.3349001419887423e-05 2.1851819804532569e-05 2.6972656045893818e-04  -2.4469902771789960e-05 7.0166349048593935e-05 -1.5025320211812664e-04  -6.7220750120544533e-05 -6.1944682692350393e-05 7.4171709013043933e-06  1.3524506076406721e-06 5.7548869408767420e-06 -1.0257437217365980e-05  -2.6284037320717498e-05 -3.2100874246939620e-05 -1.9477398198864256e-05  3.6627601607586787e-05 1.3320510840530771e-05 -8.7280571145788661e-06  -1.2780635641877351e-05 3.1117861230255074e-05 -1.0614973336999698e-04  2.9080840116632968e-05 -2.2658658059003433e-05 -8.1730965171295539e-05  -2.2010820699278794e-05 1.2693317377556194e-06 1.8562632551023684e-04  -4.2500691045485174e-05 5.6858553387513881e-06 -1.0208876990810814e-05  7.4186970570002537e-06 3.2942989300485544e-05 1.0512100332429943e-04  2.7389423265591275e-05 -1.6691862935192087e-05 1.0439519575208946e-04  -2.1846023965388139e-05 -1.0507383554460783e-06 -1.7392184343031656e-04  1.9093821324355608e-05 2.4016165534351246e-05 -1.7615400469479041e-04  -7.0662984645543534e-06 -3.3920213912001441e-05 1.2693391073420992e-04  7.1305152861809495e-06 -5.0349653457235170e-05 8.1583502147341443e-06  1.5591647361243089e-05 9.4553362538954265e-06 2.3305052501690807e-04  -5.8208192004579640e-06 -3.9357748195393908e-05 -1.4691096851697966e-04  1.6310194777959486e-05 1.4723149670602158e-08 -2.2579759933554822e-04  -2.9979408443461031e-05 3.6812677757240846e-05 6.9527450863564731e-05  -4.2226583329305315e-05 -1.4267391932424994e-05 8.0115714827807841e-05  4.4850151063199499e-05 2.9489381554467598e-06 -1.4784846151528260e-04  -5.9103562576418132e-06 1.9842923863268284e-05 -2.3283789540555938e-04  7.8667190406645059e-06 4.4794067299396950e-05 -8.6280701499910021e-05  3.5535485734054159e-05 2.5263946536190856e-05 1.3959736103730469e-04  3.8759419625090764e-05 3.8744727188778093e-05 -9.3151497679876097e-07  -4.0335682020607341e-05 1.8921026547273024e-05 -1.6161212746496751e-04  4.6278897382563122e-05 -1.3416494575393480e-05 1.6403701613844871e-05  -1.1596267174900302e-05 2.9399580356209410e-05 2.0644964965889142e-04  -4.8384091411617116e-05 -1.5663327457805133e-05 -9.6613838305893552e-05  4.9134424186348652e-05 1.1694649771979974e-06 1.3038001536185478e-04  3.2744956437464178e-05 -3.5947346523060917e-05 2.7938429963042288e-05  -4.5498839648238982e-05 1.4892893756340583e-05 1.3780426977938871e-04  9.9714763848810041e-06 -1.6475743972473610e-05 2.1407341689157959e-04  -1.5987022210493998e-05 -4.9448867962760636e-05 8.6744274945561376e-05  -1.5860505354548451e-05 -5.0870711710039928e-05 -8.4431056210214941e-05  1.8975352322525897e-05 -4.5398929690447966e-05 -1.1902879328392420e-04  -4.1519136466311104e-05 3.8577022648984312e-05 -2.5517625496780056e-05  1.5618014766711950e-05 -4.4678935749084415e-05 1.5338645759369594e-04  -9.4368114269035442e-06 5.2124731543432707e-05 2.2571764549595703e-05  -2.7937721546443840e-05 -2.0330544795975514e-05 2.2270829380757515e-04  4.7598212464692494e-05 2.3857928447695470e-05 -1.0473330112198432e-04  4.9908023329337659e-06 2.5704793469272847e-05 -8.7686141172554278e-05  1.8554671556621997e-05 1.4534137876274662e-05 1.1368045501060604e-04  </DataArray> 
</PointData> 
</Piece>
</UnstructuredGrid>
</VTKFile>