<?xml version="1.0"?>
<VTKFile type="UnstructuredGrid"  version="0.1"  >
<UnstructuredGrid>
<Piece  NumberOfPoints="201" NumberOfCells="657">
<Points>
<DataArray  type="Float64"  NumberOfComponents="3"  format="ascii">-0.03207701191466746 -0.4335692640654357 821.1915204273788  -0.2266896976059963 -0.3883094346846606 -822.263876691447  1906.239691067913 0.3320488977100459 -780.4752475801421  3625.515765226824 0.389742632642159 -663.7088989562285  4984.725894769167 -0.2701429902977929 -491.6257073009602  5849.085287472375 -0.09790716822062816 -261.8845051097732  6147.127439987935 -0.679614892594506 1.079588077060388  5850.044722925201 -1.166497753834864 261.3545896234168  4984.349865220232 -0.5218139378602475 490.597032195134  3624.881165624631 0.09368112401324946 663.5093815484865  1905.996437378818 0.5209225826193755 779.2167617350631  2414.287762909664 -1794.558960882976 -714.1954607845965  2399.820572770708 1393.401415064727 732.9227383907991  5848.432571911007 -1591.37412114457 -128.134008335217  4225.581784678564 -1741.534946004381 550.8151262857975  5328.477334188958 1612.668181023643 354.7820423512165  5306.940904031998 1610.026433107156 -360.2864057761766  2695.691582579934 1605.636110041901 -703.8011507300457  928.9819157795555 -1605.616361593287 781.1133754444256  4197.180480169995 -1604.827758104019 -561.8754790900543  2921.604833710357 -3149.304664549261 -579.7929726020539  4338.169582552555 -3084.0081051814 -405.9757858323084  2972.43008092815 -4405.452334403377 -393.2167240451238  4180.139341329483 -4124.555205835488 -197.6042397176565  2624.205653672384 -5236.6711485469 -166.6335770740125  3733.727334469464 -4694.274445425497 42.96454879809862  1960.681825963491 -5593.040896575919 75.50345506347973  2846.933571103646 -4861.56358728515 289.0760264476911  1027.377499595944 -5449.859820373435 303.9366473738294  1826.413618313226 -4454.999255413504 494.7378524056891  -71.11063520744348 -4785.123999924651 494.556961562068  4369.90549710742 -3820.923768463771 241.5498393813759  4198.417604404732 1604.362254531992 561.5336084266793  4250.5816210874 3103.570483427082 420.1703017828328  5134.791853525437 2965.81404817688 193.6901166989055  683.0419440452748 -3558.939837505901 649.7100790826172  2503.920212822215 -3121.220894972555 614.4663857939961  2921.017430837035 2969.103830965035 598.4751338215153  2812.355582934108 4338.975904040222 425.4387814653568  5862.884628287825 -1553.866018862531 127.7557481343983  5170.035436289909 -3208.751056903065 16.01091309182199  5343.131327094529 -1614.801165394365 -350.467519274901  929.8109301527887 1605.820350169881 -780.3288502901446  4156.399427905706 1564.767672832868 -569.8791215889801  4215.431381086959 3085.539785569789 -428.7018556724799  1274.719881977257 -5289.231115027233 -342.4052088592816  -893.5660353118325 -5516.366433791753 288.2420456839175  1247.184616831614 -3231.150973970236 -669.9092891286763  5103.361447353271 3005.308348525089 -199.0992323630182  3814.620180812908 4338.998342640018 -241.9943063693823  2714.336596226332 4230.873531968934 -456.1807275531924  2140.195548703035 5263.519198019312 -257.6224624382614  947.2763873758495 4947.604586046021 -444.3637896655168  276.3889133298933 5696.473416935194 -234.8988986464342  -969.7370712312708 5091.546372099965 -410.5003502540312  -1596.838878952342 5587.831023236999 -180.0480263695189  -2820.190729214733 4781.387125652439 -318.0407953030796  -307.7515209689461 5917.833682728236 16.02347651738319  -1967.981910795085 -4598.650790322293 456.4735583203519  -2712.76740130007 -5073.422119814316 232.4279665025864  -3306.817543485262 4961.523351954545 -87.93064632627292  -4369.164105262128 3885.070354704592 -221.154886438084  -4647.474173181905 3869.260451061074 19.80901400461927  -5460.541621686275 2555.022274239789 -137.0876503281702  -5533.586639189724 2425.02570810715 126.9185377573596  -4854.795937954566 2425.135699768515 -386.738743859277  -4476.984455455388 3587.478911039663 276.5174596991206  -5776.060590606366 1060.400738217641 -248.5804662863493  -5116.652745594242 1996.043995386864 372.3608113596142  -4925.626485345863 683.5316777992033 -491.9352844027378  -5524.626796014653 -771.190301997638 -354.278391060287  -3811.963358554045 3013.046782571256 497.8493238734936  -852.0894120433898 -2466.648648906847 738.0373022559229  -3711.549048931621 -3931.731821167173 374.8757606234623  -4428.765261900383 -1045.784758598729 -555.5489302859121  -4779.020222202512 -2450.182418770777 -400.1065128079917  -5909.042368840621 673.6205801190815 214.0487237860135  -2060.046905829613 3965.40192913677 -551.8185480485126  -4218.165257409039 1287.783663634111 576.4947398298798  1326.581353622828 4008.080799089254 583.696372542587  -5688.340634902868 -2003.260650687757 -145.8421160647019  -3589.537158134006 418.7142132225517 -664.7098517896835  -2796.592118345343 2295.339213805414 659.3270031306432  -3447.885895582537 -2639.147814810065 -579.3857362644551  -3607.92415813741 -3926.088982992647 -392.9007609677224  -3039.54112453101 4422.35946543119 377.2208623464273  -1547.332605072154 -5720.368332167137 55.60598021593863  -2945.663760906445 385.9681170543385 718.00436158399  -4351.561730789003 -558.1795783410032 578.7171753445003  -2083.547659034565 -3940.68563219014 -551.4020092961658  -2087.780730475656 -5014.949865579855 -352.9528052745036  -1797.445728893408 -2497.197179053614 -704.3560250860155  3116.996274309342 5105.035863891721 -25.04243165307988  -4193.378656263468 -4209.892545898887 150.4701058676791  -5049.02430630974 -2843.711434952629 264.1615955390881  1102.612721462468 5155.347758384554 389.4746169499824  -398.8631047791721 4653.791142348496 512.0632436663102  -138.3518400367341 3507.889307515031 663.5415699967219  -1671.08272090014 1483.559132258532 761.8859245459493  -2785.527846484045 -3219.854728073254 585.2545302137105  1453.973325362193 3920.097404949062 -588.8063784447289  -3447.634341191845 -4741.328819809718 -185.7535091614732  -456.6408358106997 3007.434439906642 -705.7796233878004  -1012.893426545434 1289.855469191377 -790.5471468003591  -684.6286717195693 5545.847991900986 287.9601648650041  -1303.681405311514 -914.1208866408276 791.8750754965766  -445.7637451888079 -4872.356857941997 -473.3842990763616  -2815.212451359926 -1466.031147549919 703.4029901833011  -4337.804508116116 -2359.959405602367 486.6891283741878  -5391.456366939836 -1132.277708431766 376.0821575991164  -5887.476361799689 -1466.59035775471 121.473614030156  -6121.074716508197 -190.4648570503393 -74.04049221890124  -2368.736233469981 2555.492327129157 -670.4572945845201  -3591.636243089011 2824.920927567684 -545.850407683331  -525.0051599032868 -5586.155958329966 -278.0738320473385  -209.622796907379 4393.235035868583 -557.3068771815908  2451.934841603971 5213.463427113814 223.2080081915445  5306.735346390909 -1542.502488000954 366.6051495075288  308.413737019325 -1685.040751714663 -785.1454948078239  972.4045772274593 -5782.889373316641 -131.7578320330113  -1876.034349098353 3799.935293814297 582.8739538492795  5875.340157245905 1491.517229203101 -128.9325344965649  3926.772477920203 4298.809482039536 221.2260585061915  4629.696880758096 3892.590486274235 -10.17941444191455  -4695.756349568885 -3525.619970620035 -214.2048387068997  -2035.166441902428 5574.360550877984 68.86173612630067  -3414.099257889261 4805.852271628513 158.2358843992839  -334.6561277959097 -3637.691350405783 -647.1812407084456  -1438.333105315947 -663.6063264124983 -792.7893314816764  -3029.599736563054 -1064.944657198529 -698.4095500191844  1419.529106671355 5761.318043205754 -45.07121949039802  165.3392597125603 -5889.794354601013 95.08650016693548  3400.89703652068 -3755.409620389291 454.7019802167415  5885.387001491837 1510.886257854258 114.1110937629107  2696.803742192302 -1593.83189024973 704.3947681944761  -5200.246257501711 -3160.41306765444 20.51947842259993  -1103.926209457278 -3924.824269364261 602.2077982519464  3003.864944526375 2878.781790807993 -597.2891613030299  -5276.511351281387 473.9475685929172 426.5655279416926  1383.4172848148 -4428.465669263906 -522.1333167892097  1511.414483298435 2858.186274455618 691.6775209789184  875.7201008010624 5734.588679579036 179.7683983433934  -3830.474117105391 3724.467115793153 -393.5749051486393  5144.363161751434 -2860.097328527674 -222.0094438695209  -94.86396764352568 1547.972822369001 790.8662248882537  4663.599728667826 -2787.73154108991 380.6638826690404  -5966.518147112146 1413.269539135375 -18.71589345028027  -3177.631603208861 -5076.537660213797 6.956942281152129  -1939.246749527439 -5535.755312924505 -145.2549516481564  5515.456554148015 2618.41084567924 -7.03269306672192  -1376.252607938372 2931.648050677263 690.6182939854031  1713.819552972382 2660.828225734077 -697.31358066247  -2079.276164268765 437.8838649052317 -769.7336649779658  -2249.601195714847 5193.766548741674 271.1579261630479  5231.919636327736 -2660.773784192027 234.2562384163785  -420.5699635994641 -5886.274417636032 -86.438513484213  -3954.123196457218 1546.35229564504 -592.2840610703403  -2703.084130663607 1314.055005674285 -714.9947898199496  -1722.07842557883 4779.185853377428 438.8972868835363  -4322.245939477797 -4202.739660835512 -47.69770265749288  0.08307231220716456 0.4045691526945816 0.6941818706418497  -1967.049261448522 -2329.857051193084 21.53677472088967  2973.581446595835 908.4762016435066 -4.067324230745946  -1185.45927683799 2449.004132860931 180.5565473331226  2217.47921672345 -1736.540974383167 163.0092215921861  -1446.868969776226 253.9187006403947 -363.2179428762313  -3058.818886285299 461.4443524131391 -0.4124824967010287  584.745255043333 2769.280294912728 -155.0229364099925  2067.505775740061 -1365.93069267702 -244.8516574099301  -1609.192627536732 -259.1148955696205 352.1638828595292  1542.432133671133 2060.988215293257 282.8814291837562  -569.5139756392689 -2353.670837498739 -309.7518352353881  508.819043384911 -3397.327942554324 1.841819839280225  1228.560535680578 902.9033678786852 -404.15
[...]
<PointData  Scalars="Pressure"> 
<DataArray  type="Float64"  Name="Pressure"  format="ascii">-6.7569362616618867e-04  -2.6773200128325640e-04  -2.7770622861062731e-03  -6.8468113192897504e-04  -3.5103597402299570e-03  -2.4954663874914296e-03  -1.5992790935322725e-05  9.1122453745635815e-04  -3.5934140449044869e-03  -2.1484532086267450e-03  -3.3048071773156538e-03  -4.8580199304679231e-03  2.7951626323125770e-04  -2.2640451560473323e-04  -2.3135215744657134e-04  -3.0937731926327394e-03  -2.8656437474966889e-03  -3.9915724499390830e-03  -4.3622281603324662e-03  -1.3358989811969064e-03  -1.1910507768417029e-03  1.9153558956509925e-03  -2.5146445913455892e-03  -8.0057557339603441e-04  -1.0177296266829265e-03  4.8054397493643101e-04  4.4551842960786371e-04  -3.5507410028823199e-03  -2.4859987201339613e-03  -3.4701174861390925e-03  -1.7310138086630109e-03  6.8914151721649933e-04  -3.4405619512106137e-04  -2.8238657322389058e-03  -2.8409264840536662e-03  -1.3544022474327221e-03  9.7269673213492170e-04  -2.0420545327739007e-03  -2.6596320496541620e-04  8.0693649161061763e-04  1.9696627471794143e-03  -3.0875798029767496e-04  -2.1732003321023180e-03  -8.0472734195142018e-04  -2.5770354825597128e-03  -3.1916605055624693e-03  -1.0463439990843605e-03  -2.8165039771641466e-03  9.9329202336988372e-04  -6.3453558541397032e-04  -1.7991201541084569e-03  5.2026674484680774e-04  -1.4972810578180594e-04  -8.6292176739311281e-04  1.3877480794714851e-04  -5.7508306727877521e-04  -1.1171655605640924e-03  -9.7082623660029875e-04  -1.9327286066542636e-03  -2.3942530412288357e-03  6.2755428458874016e-04  4.2915640047570728e-05  -1.2554902468659905e-03  1.7540219955175821e-03  -4.8934873032656194e-04  -3.4445813013630894e-03  -1.4222589557483557e-03  -2.6003070315252425e-03  -4.0151044030559031e-03  -2.5159306384289000e-03  -2.4725672105811621e-03  -5.0434250784952618e-04  1.8565265154951633e-03  1.2464934457055504e-03  -1.3055218247516134e-03  -1.6362625257072519e-03  1.4479115107589695e-03  -4.2024210037649116e-03  -3.5891062334698306e-03  -2.9133107006432423e-03  2.5537000042476969e-04  -1.7009917525087556e-03  -1.7709706348061072e-03  -4.8613228678776495e-03  -1.1009288063496164e-03  1.1254481778972668e-04  -9.9900633680549428e-04  -2.4061539211044981e-04  -2.4783446310186333e-04  -2.8942823627224738e-03  -1.6816093602799291e-03  -3.5771557133597726e-03  -1.0478633869702224e-03  1.8227570801976611e-05  -1.8735043086400564e-03  -1.2257176582515690e-03  9.7344036549485346e-04  -4.4546641640708234e-03  -4.3319461902465725e-03  -8.0533879668889569e-04  2.7283482387162642e-04  4.1786725351119835e-04  -4.2509384431630862e-03  7.5576109480756195e-04  8.5873827203072645e-04  -9.9264607520925530e-04  -1.0124816983568569e-03  -4.0125269185131238e-03  -1.4207215161714695e-03  -2.5961391208026412e-03  -2.6762570130083965e-03  2.1912834928186162e-03  -1.2622672805981945e-03  -1.1337884964587987e-03  -1.2391686511745179e-03  -4.3844133415028800e-03  -7.9698307891544311e-04  -1.4656790298552343e-03  -3.6471578025525438e-03  3.1516682448038368e-04  -1.1037876173158169e-03  2.0377217193269832e-04  -2.6437046557468806e-04  -2.2305016639648961e-04  3.0963059629959073e-05  7.6582532193609110e-04  -1.4272628938187565e-03  -1.3363079605540767e-03  -1.1551456521383420e-03  -4.4884684260294554e-03  2.3661645944694021e-03  -6.4145863249830462e-04  -1.2645439250969415e-03  -1.1412390621709048e-04  -3.9244270093339974e-03  2.7624262919696543e-03  -4.0170546076727914e-03  -2.4757260126136212e-03  -1.4838846242067078e-03  -3.0300143166591444e-03  -3.2876286030562849e-03  -1.6037170732046292e-03  -1.9560802244428054e-04  5.1566665866083379e-04  -2.9280588059071339e-03  -1.1639646529520908e-03  -1.0697224948607253e-03  6.6697114442851573e-04  -2.7078978296648797e-03  -8.4925626165856718e-05  -3.7306860107058602e-03  -1.9639348057215651e-03  -1.5712963417844708e-03  8.0137203672532532e-04  1.2755849348613331e-03  -9.1444252045057447e-04  -7.4970919589814101e-04  -3.3667556098736871e-03  -1.5324308643907061e-03  -9.4389524026243076e-04  1.5266397087983150e-01  1.0652881905763920e-01  1.0993626112791302e-01  1.0760315326482611e-01  1.0861555417726938e-01  1.1159297940630425e-01  1.1337984959686133e-01  1.1140692993196480e-01  1.0762770925756296e-01  1.1323576416843763e-01  1.0381912529002586e-01  1.0160706037213109e-01  9.9089060032299905e-02  1.0485563764141581e-01  9.7368600473886263e-02  1.0450553753871641e-01  9.5781647902483474e-02  9.3468004794248674e-02  9.1187619612009732e-02  9.1232660762237808e-02  8.5727695650143487e-02  8.5110545778352115e-02  7.9521815778960447e-02  8.7100853568437192e-02  8.4710550233589088e-02  8.3837937063798190e-02  8.3262739624463428e-02  8.1965724840709631e-02  7.9911395497183096e-02  8.2799205081754756e-02  8.7177296785037717e-02  7.8711632557373928e-02  7.3263057659459480e-02  7.5812195661853515e-02  7.0852048854535360e-02  7.8522668392286110e-02  7.3578857351844121e-02  7.5756063740478635e-02  7.1394882006372631e-02  1.3582757813397545e-01  1.3464341490206438e-01  </DataArray> 
</PointData> 
</Piece>
</UnstructuredGrid>
</VTKFile>