<?xml version="1.0"?>
<VTKFile type="UnstructuredGrid"  version="0.1"  >
<UnstructuredGrid>
<Piece  NumberOfPoints="201" NumberOfCells="657">
<Points>
<DataArray  type="Float64"  NumberOfComponents="3"  format="ascii">-0.03207701191466746 -0.4335692640654357 821.1915204273788  -0.2266896976059963 -0.3883094346846606 -822.263876691447  1906.239691067913 0.3320488977100459 -780.4752475801421  3625.515765226824 0.389742632642159 -663.7088989562285  4984.725894769167 -0.2701429902977929 -491.6257073009602  5849.085287472375 -0.09790716822062816 -261.8845051097732  6147.127439987935 -0.679614892594506 1.079588077060388  5850.044722925201 -1.166497753834864 261.3545896234168  4984.349865220232 -0.5218139378602475 490.597032195134  3624.881165624631 0.09368112401324946 663.5093815484865  1905.996437378818 0.5209225826193755 779.2167617350631  2414.287762909664 -1794.558960882976 -714.1954607845965  2399.820572770708 1393.401415064727 732.9227383907991  5848.432571911007 -1591.37412114457 -128.134008335217  4225.581784678564 -1741.534946004381 550.8151262857975  5328.477334188958 1612.668181023643 354.7820423512165  5306.940904031998 1610.026433107156 -360.2864057761766  2695.691582579934 1605.636110041901 -703.8011507300457  928.9819157795555 -1605.616361593287 781.1133754444256  4197.180480169995 -1604.827758104019 -561.8754790900543  2921.604833710357 -3149.304664549261 -579.7929726020539  4338.169582552555 -3084.0081051814 -405.9757858323084  2972.43008092815 -4405.452334403377 -393.2167240451238  4180.139341329483 -4124.555205835488 -197.6042397176565  2624.205653672384 -5236.6711485469 -166.6335770740125  3733.727334469464 -4694.274445425497 42.96454879809862  1960.681825963491 -5593.040896575919 75.50345506347973  2846.933571103646 -4861.56358728515 289.0760264476911  1027.377499595944 -5449.859820373435 303.9366473738294  1826.413618313226 -4454.999255413504 494.7378524056891  -71.11063520744348 -4785.123999924651 494.556961562068  4369.90549710742 -3820.923768463771 241.5498393813759  4198.417604404732 1604.362254531992 561.5336084266793  4250.5816210874 3103.570483427082 420.1703017828328  5134.791853525437 2965.81404817688 193.6901166989055  683.0419440452748 -3558.939837505901 649.7100790826172  2503.920212822215 -3121.220894972555 614.4663857939961  2921.017430837035 2969.103830965035 598.4751338215153  2812.355582934108 4338.975904040222 425.4387814653568  5862.884628287825 -1553.866018862531 127.7557481343983  5170.035436289909 -3208.751056903065 16.01091309182199  5343.131327094529 -1614.801165394365 -350.467519274901  929.8109301527887 1605.820350169881 -780.3288502901446  4156.399427905706 1564.767672832868 -569.8791215889801  4215.431381086959 3085.539785569789 -428.7018556724799  1274.719881977257 -5289.231115027233 -342.4052088592816  -893.5660353118325 -5516.366433791753 288.2420456839175  1247.184616831614 -3231.150973970236 -669.9092891286763  5103.361447353271 3005.308348525089 -199.0992323630182  3814.620180812908 4338.998342640018 -241.9943063693823  2714.336596226332 4230.873531968934 -456.1807275531924  2140.195548703035 5263.519198019312 -257.6224624382614  947.2763873758495 4947.604586046021 -444.3637896655168  276.3889133298933 5696.473416935194 -234.8988986464342  -969.7370712312708 5091.546372099965 -410.5003502540312  -1596.838878952342 5587.831023236999 -180.0480263695189  -2820.190729214733 4781.387125652439 -318.0407953030796  -307.7515209689461 5917.833682728236 16.02347651738319  -1967.981910795085 -4598.650790322293 456.4735583203519  -2712.76740130007 -5073.422119814316 232.4279665025864  -3306.817543485262 4961.523351954545 -87.93064632627292  -4369.164105262128 3885.070354704592 -221.154886438084  -4647.474173181905 3869.260451061074 19.80901400461927  -5460.541621686275 2555.022274239789 -137.0876503281702  -5533.586639189724 2425.02570810715 126.9185377573596  -4854.795937954566 2425.135699768515 -386.738743859277  -4476.984455455388 3587.478911039663 276.5174596991206  -5776.060590606366 1060.400738217641 -248.5804662863493  -5116.652745594242 1996.043995386864 372.3608113596142  -4925.626485345863 683.5316777992033 -491.9352844027378  -5524.626796014653 -771.190301997638 -354.278391060287  -3811.963358554045 3013.046782571256 497.8493238734936  -852.0894120433898 -2466.648648906847 738.0373022559229  -3711.549048931621 -3931.731821167173 374.8757606234623  -4428.765261900383 -1045.784758598729 -555.5489302859121  -4779.020222202512 -2450.182418770777 -400.1065128079917  -5909.042368840621 673.6205801190815 214.0487237860135  -2060.046905829613 3965.40192913677 -551.8185480485126  -4218.165257409039 1287.783663634111 576.4947398298798  1326.581353622828 4008.080799089254 583.696372542587  -5688.340634902868 -2003.260650687757 -145.8421160647019  -3589.537158134006 418.7142132225517 -664.7098517896835  -2796.592118345343 2295.339213805414 659.3270031306432  -3447.885895582537 -2639.147814810065 -579.3857362644551  -3607.92415813741 -3926.088982992647 -392.9007609677224  -3039.54112453101 4422.35946543119 377.2208623464273  -1547.332605072154 -5720.368332167137 55.60598021593863  -2945.663760906445 385.9681170543385 718.00436158399  -4351.561730789003 -558.1795783410032 578.7171753445003  -2083.547659034565 -3940.68563219014 -551.4020092961658  -2087.780730475656 -5014.949865579855 -352.9528052745036  -1797.445728893408 -2497.197179053614 -704.3560250860155  3116.996274309342 5105.035863891721 -25.04243165307988  -4193.378656263468 -4209.892545898887 150.4701058676791  -5049.02430630974 -2843.711434952629 264.1615955390881  1102.612721462468 5155.347758384554 389.4746169499824  -398.8631047791721 4653.791142348496 512.0632436663102  -138.3518400367341 3507.889307515031 663.5415699967219  -1671.08272090014 1483.559132258532 761.8859245459493  -2785.527846484045 -3219.854728073254 585.2545302137105  1453.973325362193 3920.097404949062 -588.8063784447289  -3447.634341191845 -4741.328819809718 -185.7535091614732  -456.6408358106997 3007.434439906642 -705.7796233878004  -1012.893426545434 1289.855469191377 -790.5471468003591  -684.6286717195693 5545.847991900986 287.9601648650041  -1303.681405311514 -914.1208866408276 791.8750754965766  -445.7637451888079 -4872.356857941997 -473.3842990763616  -2815.212451359926 -1466.031147549919 703.4029901833011  -4337.804508116116 -2359.959405602367 486.6891283741878  -5391.456366939836 -1132.277708431766 376.0821575991164  -5887.476361799689 -1466.59035775471 121.473614030156  -6121.074716508197 -190.4648570503393 -74.04049221890124  -2368.736233469981 2555.492327129157 -670.4572945845201  -3591.636243089011 2824.920927567684 -545.850407683331  -525.0051599032868 -5586.155958329966 -278.0738320473385  -209.622796907379 4393.235035868583 -557.3068771815908  2451.934841603971 5213.463427113814 223.2080081915445  5306.735346390909 -1542.502488000954 366.6051495075288  308.413737019325 -1685.040751714663 -785.1454948078239  972.4045772274593 -5782.889373316641 -131.7578320330113  -1876.034349098353 3799.935293814297 582.8739538492795  5875.340157245905 1491.517229203101 -128.9325344965649  3926.772477920203 4298.809482039536 221.2260585061915  4629.696880758096 3892.590486274235 -10.17941444191455  -4695.756349568885 -3525.619970620035 -214.2048387068997  -2035.166441902428 5574.360550877984 68.86173612630067  -3414.099257889261 4805.852271628513 158.2358843992839  -334.6561277959097 -3637.691350405783 -647.1812407084456  -1438.333105315947 -663.6063264124983 -792.7893314816764  -3029.599736563054 -1064.944657198529 -698.4095500191844  1419.529106671355 5761.318043205754 -45.07121949039802  165.3392597125603 -5889.794354601013 95.08650016693548  3400.89703652068 -3755.409620389291 454.7019802167415  5885.387001491837 1510.886257854258 114.1110937629107  2696.803742192302 -1593.83189024973 704.3947681944761  -5200.246257501711 -3160.41306765444 20.51947842259993  -1103.926209457278 -3924.824269364261 602.2077982519464  3003.864944526375 2878.781790807993 -597.2891613030299  -5276.511351281387 473.9475685929172 426.5655279416926  1383.4172848148 -4428.465669263906 -522.1333167892097  1511.414483298435 2858.186274455618 691.6775209789184  875.7201008010624 5734.588679579036 179.7683983433934  -3830.474117105391 3724.467115793153 -393.5749051486393  5144.363161751434 -2860.097328527674 -222.0094438695209  -94.86396764352568 1547.972822369001 790.8662248882537  4663.599728667826 -2787.73154108991 380.6638826690404  -5966.518147112146 1413.269539135375 -18.71589345028027  -3177.631603208861 -5076.537660213797 6.956942281152129  -1939.246749527439 -5535.755312924505 -145.2549516481564  5515.456554148015 2618.41084567924 -7.03269306672192  -1376.252607938372 2931.648050677263 690.6182939854031  1713.819552972382 2660.828225734077 -697.31358066247  -2079.276164268765 437.8838649052317 -769.7336649779658  -2249.601195714847 5193.766548741674 271.1579261630479  5231.919636327736 -2660.773784192027 234.2562384163785  -420.5699635994641 -5886.274417636032 -86.438513484213  -3954.123196457218 1546.35229564504 -592.2840610703403  -2703.084130663607 1314.055005674285 -714.9947898199496  -1722.07842557883 4779.185853377428 438.8972868835363  -4322.245939477797 -4202.739660835512 -47.69770265749288  0.08307231220716456 0.4045691526945816 0.6941818706418497  -1967.049261448522 -2329.857051193084 21.53677472088967  2973.581446595835 908.4762016435066 -4.067324230745946  -1185.45927683799 2449.004132860931 180.5565473331226  2217.47921672345 -1736.540974383167 163.0092215921861  -1446.868969776226 253.9187006403947 -363.2179428762313  -3058.818886285299 461.4443524131391 -0.4124824967010287  584.745255043333 2769.280294912728 -155.0229364099925  2067.505775740061 -1365.93069267702 -244.8516574099301  -1609.192627536732 -259.1148955696205 352.1638828595292  1542.432133671133 2060.988215293257 282.8814291837562  -569.5139756392689 -2353.670837498739 -309.7518352353881  508.819043384911 -3397.327942554324 1.841819839280225  1228.560535680578 902.9033678786852 -404.15
[...]
<PointData  Vectors="Tidal Force"> 
<DataArray  type="Float64"  Name="Tidal Force"  NumberOfComponents="3" format="ascii">3.2177125729064111e-30 -2.8730161001176562e-16 0.0000000000000000e+00  3.2177125729064111e-30 -2.8730161001176562e-16 0.0000000000000000e+00  -2.4803201082820255e-30 2.2146165771740267e-16 0.0000000000000000e+00  -3.9551050375307971e-30 3.5314156230612858e-16 0.0000000000000000e+00  1.4077492506465549e-30 -1.2569445438014745e-16 0.0000000000000000e+00  -2.6814271440886761e-31 2.3941800834313801e-17 0.0000000000000000e+00  3.6199266445197124e-30 -3.2321431126323629e-16 0.0000000000000000e+00  7.6420673606527262e-30 -6.8234132377794335e-16 0.0000000000000000e+00  3.2177125729064111e-30 -2.8730161001176562e-16 0.0000000000000000e+00  -1.3407135720443379e-30 1.1970900417156900e-16 0.0000000000000000e+00  -4.4243547877463150e-30 3.9503971376617772e-16 0.0000000000000000e+00  2.6511940530390762e-26 -2.3671857029906914e-12 0.0000000000000000e+00  -2.0590544968099740e-26 1.8384789151665397e-12 0.0000000000000000e+00  2.3566191705573547e-26 -2.1041670644751286e-12 0.0000000000000000e+00  2.5742639082751721e-26 -2.2984966763970451e-12 0.0000000000000000e+00  -2.3854109945170063e-26 2.1298745731209727e-12 0.0000000000000000e+00  -2.3837351025519511e-26 2.1283782105688282e-12 0.0000000000000000e+00  -2.3726675120147251e-26 2.1184962322744652e-12 0.0000000000000000e+00  2.3725200335218003e-26 -2.1183645523698766e-12 0.0000000000000000e+00  2.3721111158823266e-26 -2.1179994399071531e-12 0.0000000000000000e+00  4.6545754187699090e-26 -4.1559554541749871e-12 0.0000000000000000e+00  4.5607589865661058e-26 -4.0721890785059312e-12 0.0000000000000000e+00  6.5177181448649032e-26 -5.8195095869958212e-12 0.0000000000000000e+00  6.1111065327352964e-26 -5.4564561191442868e-12 0.0000000000000000e+00  7.7556392073406018e-26 -6.9248187352131692e-12 0.0000000000000000e+00  6.9568956896594672e-26 -6.2116403719606296e-12 0.0000000000000000e+00  8.2850132576944481e-26 -7.3974837527344005e-12 0.0000000000000000e+00  7.1986799752419440e-26 -6.4275235900836378e-12 0.0000000000000000e+00  8.0678645839982869e-26 -7.2035970641279190e-12 0.0000000000000000e+00  6.5861682762856275e-26 -5.8806270190756162e-12 0.0000000000000000e+00  7.0745433056063583e-26 -6.3166850231211818e-12 0.0000000000000000e+00  5.6563700069371580e-26 -5.0504331042453673e-12 0.0000000000000000e+00  -2.3718228624643369e-26 2.1177420655481842e-12 0.0000000000000000e+00  -4.5903485351011251e-26 4.0986088557265970e-12 0.0000000000000000e+00  -4.3940278467466728e-26 3.9233189609181686e-12 0.0000000000000000e+00  5.2587076579009477e-26 -4.6953702124222851e-12 0.0000000000000000e+00  4.6116323630573293e-26 -4.1176126601388337e-12 0.0000000000000000e+00  -4.3886918067299358e-26 3.9185545425521396e-12 0.0000000000000000e+00  -6.4179288336976438e-26 5.7304101751909221e-12 0.0000000000000000e+00  2.3000477613849434e-26 -2.0536558501649349e-12 0.0000000000000000e+00  4.7516631920894996e-26 -4.2426427295458286e-12 0.0000000000000000e+00  2.3879784610074713e-26 -2.1321670005508583e-12 0.0000000000000000e+00  -2.3726071799039831e-26 2.1184423632225881e-12 0.0000000000000000e+00  -2.3126906903693216e-26 2.0649444092583139e-12 0.0000000000000000e+00  -4.5647677201465190e-26 4.0757683777306617e-12 0.0000000000000000e+00  7.8282455508346635e-26 -6.9896471464222829e-12 0.0000000000000000e+00  8.1648249895285338e-26 -7.2901706159447979e-12 0.0000000000000000e+00  4.7746966512572213e-26 -4.2632087364625043e-12 0.0000000000000000e+00  -4.4491915066684369e-26 3.9725732306845606e-12 0.0000000000000000e+00  -6.4256446403047580e-26 5.7372994283809960e-12 0.0000000000000000e+00  -6.2579079653062910e-26 5.5875314932619460e-12 0.0000000000000000e+00  -7.7909334921246698e-26 6.9563321305613349e-12 0.0000000000000000e+00  -7.3180168902896104e-26 6.5340765746967511e-12 0.0000000000000000e+00  -8.4333632144411539e-26 7.5299417658502418e-12 0.0000000000000000e+00  -7.5303725129657126e-26 6.7236836664040990e-12 0.0000000000000000e+00  -8.2782493577234857e-26 7.3914444334739460e-12 0.0000000000000000e+00  -7.0754683979710683e-26 6.3175110152499656e-12 0.0000000000000000e+00  -8.7674556294588826e-26 7.8282446333453743e-12 0.0000000000000000e+00  6.8002131980625060e-26 -6.0717424442355261e-12 0.0000000000000000e+00  7.5134124862793512e-26 -6.7085404773763957e-12 0.0000000000000000e+00  -7.3488734131502106e-26 6.5616276020068375e-12 0.0000000000000000e+00  -5.7507495388412196e-26 5.1347022577319436e-12 0.0000000000000000e+00  -5.7336621443655145e-26 5.1194453451502769e-12 0.0000000000000000e+00  -3.7843249427237893e-26 3.3789302935475411e-12 0.0000000000000000e+00  -3.5919995808140291e-26 3.2072077270634254e-12 0.0000000000000000e+00  -3.5885807612053163e-26 3.2041551474570505e-12 0.0000000000000000e+00  -5.3097687342922560e-26 4.7409613866610272e-12 0.0000000000000000e+00  -1.5693655681886395e-26 1.4012477628800924e-12 0.0000000000000000e+00  -2.9540076204210104e-26 2.6375604598125970e-12 0.0000000000000000e+00  -1.0092154377885151e-26 9.0110354345127712e-13 0.0000000000000000e+00  1.1405651464416989e-26 -1.0183824548381632e-12 0.0000000000000000e+00  -4.4551107570890122e-26 3.9778583832187349e-12 0.0000000000000000e+00  3.6441198209272529e-26 -3.2537446024351228e-12 0.0000000000000000e+00  5.8152713794958530e-26 -5.1923122159895109e-12 0.0000000000000000e+00  1.5456148272598741e-26 -1.3800413127910989e-12 0.0000000000000000e+00  3.6249073954398572e-26 -3.2365903021373368e-12 0.0000000000000000e+00  -9.9644514101479292e-27 8.8970126080393518e-13 0.0000000000000000e+00  -5.8624510900960941e-26 5.2344378145574866e-12 0.0000000000000000e+00  -1.9030356584311742e-26 1.6991735470120848e-12 0.0000000000000000e+00  -5.9244792035067246e-26 5.2898211853374624e-12 0.0000000000000000e+00  2.9674750882521958e-26 -2.6495852292816313e-12 0.0000000000000000e+00  -6.1807566028030004e-27 5.5186449468114173e-13 0.0000000000000000e+00  -3.3915897160648413e-26 3.0282667076277641e-12 0.0000000000000000e+00  3.9012619804774961e-26 -3.4833404869859834e-12 0.0000000000000000e+00  5.8072941337421902e-26 -5.1851895302413029e-12 0.0000000000000000e+00  -6.5401281722216248e-26 5.8395189470430987e-12 0.0000000000000000e+00  8.4768291484468314e-26 -7.5687514250026642e-12 0.0000000000000000e+00  -5.7058088199062930e-27 5.0945757995336334e-13 0.0000000000000000e+00  8.2506842866822544e-27 -7.3668322622162711e-13 0.0000000000000000e+00  5.8254205812362296e-26 -5.2013741876052992e-12 0.0000000000000000e+00  7.4217277886550994e-26 -6.6266774748736679e-12 0.0000000000000000e+00  3.6898917822768462e-26 -3.2946132564592964e-12 0.0000000000000000e+00  -7.5635685810095301e-26 6.7533236158369797e-12 0.0000000000000000e+00  6.2334667568879232e-26 -5.5657085418014689e-12 0.0000000000000000e+00  4.2101087589336300e-26 -3.7591021489956101e-12 0.0000000000000000e+00  -7.6253285517057530e-26 6.8084675686086131e-12 0.0000000000000000e+00  -6.8795767379596699e-26 6.1426041892548860e-12 0.0000000000000000e+00  -5.1842913510846273e-26 4.6289257296568561e-12 0.0000000000000000e+00  -2.1913494085314489e-26 1.9566017750328354e-12 0.0000000000000000e+00  4.7582527992960970e-26 -4.2485264271008609e-12 0.0000000000000000e+00  -5.7931361984214016e-26 5.1725482594007849e-12 0.0000000000000000e+00  7.0184076283448618e-26 -6.2665628630745455e-12 0.0000000000000000e+00  -4.4441236093661088e-26 3.9680482303268747e-12 0.0000000000000000e+00  -1.9056701606002411e-26 1.7015258289440561e-12 0.0000000000000000e+00  -8.2068965814192857e-26 7.3277353014538363e-12 0.0000000000000000e+00  1.3497700922234976e-26 -1.2051763849474796e-12 0.0000000000000000e+00  7.2034126941512590e-26 -6.4317493179308934e-12 0.0000000000000000e+00  2.1669953464952633e-26 -1.9348566344250697e-12 0.0000000000000000e+00  3.4887177107915930e-26 -3.1149898956998569e-12 0.0000000000000000e+00  1.6757042651553361e-26 -1.4961949595387723e-12 0.0000000000000000e+00  2.1735514358625601e-26 -1.9407104047290594e-12 0.0000000000000000e+00  2.8252186746904314e-27 -2.5225679904053880e-13 0.0000000000000000e+00  -3.7761935149093403e-26 3.3716699424445354e-12 0.0000000000000000e+00  -4.1757060486749722e-26 3.7283848185251851e-12 0.0000000000000000e+00  8.2682610416117549e-26 -7.3825261126631632e-12 0.0000000000000000e+00  -6.4947986463508059e-26 5.7990453327326913e-12 0.0000000000000000e+00  -7.7205996581352235e-26 6.8935327869729301e-12 0.0000000000000000e+00  2.2819012031873234e-26 -2.0374532364503129e-12 0.0000000000000000e+00  2.4898793960507012e-26 -2.2231518291714594e-12 0.0000000000000000e+00  8.5653229477696180e-26 -7.6477653532061084e-12 0.0000000000000000e+00  -5.6160145284186245e-26 5.0144006939897256e-12 0.0000000000000000e+00  -2.2094222274826065e-26 1.9727385487951629e-12 0.0000000000000000e+00  -6.3668208323313130e-26 5.6847771028007203e-12 0.0000000000000000e+00  -5.7684536615600658e-26 5.1505098317327994e-12 0.0000000000000000e+00  5.2201554391368127e-26 -4.6609478882727505e-12 0.0000000000000000e+00  -8.2569320119279800e-26 7.3724107018106661e-12 0.0000000000000000e+00  -7.1196583173056499e-26 6.3569671030249147e-12 0.0000000000000000e+00  5.3755776599760520e-26 -4.7997205513586417e-12 0.0000000000000000e+00  9.8089956714693875e-27 -8.7582100177024171e-13 0.0000000000000000e+00  1.5743262084052037e-26 -1.4056769960344404e-12 0.0000000000000000e+00  -8.5327704222403824e-26 7.6187000069932525e-12 0.0000000000000000e+00  8.7241371739461305e-26 -7.7895666540975409e-12 0.0000000000000000e+00  5.5532557261112285e-26 -4.9583649091370139e-12 0.0000000000000000e+00  -2.2377984302349250e-26 1.9980749595280756e-12 0.0000000000000000e+00  2.3553320855281918e-26 -2.1030178580350814e-12 0.0000000000000000e+00  4.6807260369926332e-26 -4.1793046954386511e-12 0.0000000000000000e+00  5.8006911193998712e-26 -5.1792938617858532e-12 0.0000000000000000e+00  -4.2549154065113522e-26 3.7991088981897485e-12 0.0000000000000000e+00  -7.0069043058967213e-27 6.2562918305166255e-13 0.0000000000000000e+00  6.5461211618886628e-26 -5.8448699395295683e-12 0.0000000000000000e+00  -4.2228455378680510e-26 3.7704745043919086e-12 0.0000000000000000e+00  -8.4936416966402686e-26 7.5837629341257793e-12 0.0000000000000000e+00  -5.5090054746659050e-26 4.9188549523101876e-12 0.0000000000000000e+00  4.2339131284052778e-26 -3.7803564826862724e-12 0.0000000000000000e+00  -2.2871500968218772e-26 2.0421398439636300e-12 0.0000000000000000e+00  4.1230294124293502e-26 -3.6813511507861755e-12 0.0000000000000000e+00  -2.0930080680219967e-26 1.8687952204729895e-12 0.0000000000000000e+00  7.5179910231278829e-26 -6.7126285398688548e-12 0.0000000000000000e+00  8.2025526694458618e-26 -7.3238567297186772e-12 0.0000000000000000e+00  -3.8789256923672378e-26 3.4633969668910001e-12 0.0000000000000000e+00  -4.3319461047931595e-26 3.8678877065365232e-12 0.0000000000000000e+00  -3.9329229314813233e-26 3.5116097683210995e-12 0.0000000000000000e+00  -6.4649878800763999e-27 5.7724280356551434e-13 0.0000000000000000e+00  -7.6867868618482649e-26 6.8633421761208602e-12 0.0000000000000000e+00  3.9383126000409418e-26 -3.5164220702887965e-12 0.0000000000000000e+00  8.7178090058860817e-26 -7.7839163891006435e-12 0.0000000000000000e+00  -2.2853468370674772e-26 2.0405297578575222e-12 0.0000000000000000e+00  -1.9421174590562667e-26 1.7340687217280972e-12 0.0000000000000000e+00  -7.0694217797611487e-26 6.3121121391618279e-12 0.0000000000000000e+00  6.2248057472125161e-26 -5.5579753401319856e-12 0.0000000000000000e+00  -3.4858552873152791e-30 3.1124341084607943e-16 0.0000000000000000e+00  3.4413033753162458e-26 -3.0726548063745819e-12 0.0000000000000000e+00  -1.3420408784806619e-26 1.1982751608569885e-12 0.0000000000000000e+00  -3.6171848852648816e-26 3.2296950634970546e-12 0.0000000000000000e+00  2.5644834027671084e-26 -2.2897639045427289e-12 0.0000000000000000e+00  -3.7509143605084445e-27 3.3490988097079859e-13 0.0000000000000000e+00  -6.8238969033126687e-27 6.0928890398224335e-13 0.0000000000000000e+00  -4.0908925081074476e-26 3.6526569024862510e-12 0.0000000000000000e+00  2.0168421299941579e-26 -1.8007885352031212e-12 0.0000000000000000e+00  3.8288768547228220e-27 -3.4187095956337532e-13 0.0000000000000000e+00  -3.0443113830660569e-26 2.7181904595723574e-12 0.0000000000000000e+00  3.4753440929104509e-26 -3.1030489225337432e-12 0.0000000000000000e+00  5.0179825360403869e-26 -4.4804326954322332e-12 0.0000000000000000e+00  -1.3329642475979218e-26 1.1901708612745734e-12 0.0000000000000000e+00  3.9090582298989338e-26 -3.4903015655785601e-12 0.0000000000000000e+00  4.7633542144377264e-27 -4.2530813547095894e-13 0.0000000000000000e+00  -3.8229173828950854e-26 3.4133885303983271e-12 0.0000000000000000e+00  1.8248653536131291e-26 -1.6293772121298515e-12 0.0000000000000000e+00  -2.2944301715180778e-27 2.0486400428901461e-13 0.0000000000000000e+00  -2.3710653592961324e-26 2.1170657096746151e-12 0.0000000000000000e+00  -5.3703689877486610e-26 4.7950698565465768e-12 0.0000000000000000e+00  -3.1760968236301549e-26 2.8358584252228011e-12 0.0000000000000000e+00  -4.4610568217810289e-26 3.9831674775537441e-12 0.0000000000000000e+00  -2.0188599039200846e-26 1.8025901557159032e-12 0.0000000000000000e+00  1.6746115835941202e-26 -1.4952193311547740e-12 0.0000000000000000e+00  -3.5303133493642689e-26 3.1521296142440865e-12 0.0000000000000000e+00  1.8549643733055245e-26 -1.6562518835663687e-12 0.0000000000000000e+00  -3.1744075245293791e-27 2.8343500917702393e-13 0.0000000000000000e+00  4.3893152385409366e-26 -3.9191111894215379e-12 0.0000000000000000e+00  -1.6203193874941848e-26 1.4467431699154972e-12 0.0000000000000000e+00  1.7250157103351268e-26 -1.5402239312730754e-12 0.0000000000000000e+00  5.5152397927759111e-26 -4.9244214210041657e-12 0.0000000000000000e+00  5.8071801730885657e-26 -5.1850877775877570e-12 0.0000000000000000e+00  5.1195415891227456e-26 -4.5711122660921970e-12 0.0000000000000000e+00  -4.3716379300935317e-26 3.9033275572215160e-12 0.0000000000000000e+00  4.9873003059441523e-26 -4.4530372898275697e-12 0.0000000000000000e+00  -5.8853303672030303e-26 5.2548661561193642e-12 0.0000000000000000e+00  2.2212003962130160e-26 -1.9832549848116352e-12 0.0000000000000000e+00  -2.8566047794119891e-26 2.5505918682819523e-12 0.0000000000000000e+00  -2.6396303984801935e-26 2.3568608013808934e-12 0.0000000000000000e+00  -1.4216658575243749e-26 1.2693703384344833e-12 0.0000000000000000e+00  </DataArray> 
</PointData> 
</Piece>
</UnstructuredGrid>
</VTKFile>