<?xml version="1.0"?>
<VTKFile type="UnstructuredGrid"  version="0.1"  >
<UnstructuredGrid>
<Piece  NumberOfPoints="201" NumberOfCells="657">
<Points>
<DataArray  type="Float64"  NumberOfComponents="3"  format="ascii">-28.32792411512215 -2.441330898489102 53.89335081500592  -10.79612265622499 -15.48921915725222 -52.45342993964915  5563.784079238589 -104.7540940540498 -77.42141802474228  9272.756745155346 -110.091857899463 -138.6880876745567  11022.79942791672 -110.174804435402 -234.7730518701181  11796.0963758078 -112.1706291852149 -176.8539088103797  12025.88163765498 -119.7036388553842 9.103761797937258  11799.43049867543 -119.3539032878745 185.5458662823212  11024.15691183314 -117.6739724974549 232.9416954582516  9280.924819565334 -135.2606830899365 133.7004837067094  5573.992164629009 -74.8221977770996 74.13051538566219  6378.097562222943 -4323.723724532885 -117.8224961106609  6658.604297764313 3336.970424176535 96.69595123475308  11612.03425567996 -2840.57538212705 -93.67104897993912  9705.601175755432 -3601.891829580671 201.5404332797463  11078.53540912767 2806.692156354493 237.239831080175  11092.45448994264 2798.969764106651 -227.63773640606  7199.168746952193 3700.203020898271 -131.5613797901204  2669.408262422113 -4256.490859598507 84.67601335586664  9715.782973031244 -3358.445989969999 -192.3750683153123  6801.091116474687 -6648.935097021593 -190.5791888900991  9178.29673243941 -5823.347556049909 -211.154855334808  6206.211231679245 -8239.00159120217 -232.8999117585122  8301.812567455199 -7292.590569050771 -146.7414850193371  5174.325436350113 -9218.74725876417 -125.7413589337171  7299.472330020426 -8172.283653710678 25.02648042235545  3796.68464041124 -9774.859132050846 54.83553375408892  5747.701113638778 -8769.768414727419 192.362924991855  2022.827852320327 -9908.122654352479 194.0899889047867  3986.766020214622 -8796.894049455906 227.5555057014675  -222.2495382162192 -9418.54146709542 225.4956278171217  8771.2654668218 -6822.395376319729 148.5754521870825  9828.862745582152 3145.130688376275 207.1212289841996  9138.114955287243 5672.697994818592 230.5250578136496  10278.28655441853 5027.881450231834 138.8460683276166  1653.710492844533 -8012.426257987448 143.369408717211  6035.903592028843 -6798.328770653994 171.8513560626421  7043.50452738428 6169.789113443963 188.0424527894955  6098.355479040958 8103.73635994219 218.7305543761155  11630.54903681552 -2780.443643909815 91.57877490146288  10164.56948093892 -5601.643526491672 7.203916641864523  11145.78443177766 -3012.66066021604 -201.4047217441036  2714.600252635458 4223.357564567686 -76.90868219063583  9793.986353864184 3116.856229907644 -206.5682530826609  9083.846625474096 5669.315959124713 -237.1315663725121  2566.409512098133 -9738.338377563532 -209.0861157683782  -1929.966301899122 -9933.254525768976 192.3480388264695  3155.268859464324 -7386.836691820927 -136.9044055321002  10215.30889530085 5112.889910536948 -147.1942772691072  7765.552930990769 7546.535623647675 -169.5156063383807  6008.347229570602 8022.188638429322 -224.957520292171  4426.442036225712 9328.743426754894 -163.9325998878705  2121.708004068109 9397.445624676171 -218.0025192310185  587.3893100640132 10075.32290805717 -151.2102141000504  -2063.304208016901 9587.958441371351 -214.3111330567142  -3204.894510075795 9856.579590995441 -126.3289541039778  -5812.094761107731 8745.05118315079 -205.429090610101  -604.6864580527392 10255.983494014 14.64252457776342  -4405.71786101468 -8763.339012088867 216.645619117051  -5559.850684732804 -8918.096144215046 152.2769249316913  -6542.576108932099 8711.508779179636 -64.33290531386204  -8750.796641754856 7015.412211408333 -155.5475292712215  -9116.654164301379 6842.194055356921 12.50688006500681  -10792.38321079117 4552.717857599541 -99.3295167488584  -10897.91698039465 4321.334599437439 91.6501126320525  -10171.0428759924 4624.409374240162 -218.9510543965739  -9064.321735683501 6549.074356770845 185.7006032657381  -11554.03291468539 2004.073356997239 -176.6405359357605  -10647.20182068674 3789.261182691784 214.7492996968655  -10848.17650765162 1449.08344182486 -229.4527623350999  -11419.07451075822 -1326.595712456285 -225.6968698395849  -8482.264437280668 6062.308209174919 218.2528623339041  -2484.95628245571 -6033.369518901646 93.88033043307462  -7874.510955660874 -7165.898813788831 211.2741089529625  -10270.79619595842 -2045.228606781516 -208.6915048277688  -10173.09864604011 -4488.453367250539 -221.7916864613829  -11713.9837041237 1300.505922013086 160.4643976137028  -4725.182393759395 8138.128168198957 -212.5585449213241  -9846.929235547308 2787.941005732901 195.3957400327881  3214.858815197645 8335.246073133627 195.7277642863925  -11264.16022622386 -3414.652981865483 -111.7944407045617  -9115.870663685295 993.2928992063878 -141.0656949960083  -7011.549397447903 5331.504247171555 145.6206702312354  -8161.858383793946 -5403.934379181635 -201.7877484443592  -7709.456026845319 -7180.051531902908 -221.4446334543738  -6360.544741328286 8299.481341279474 219.0585723935695  -3158.106813702102 -9911.095206315684 45.4982437445781  -7935.686991456753 994.7860394279181 100.909324196735  -10274.23883542491 -1076.258424381013 193.5780349922157  -4913.330516886341 -7948.795026242495 -209.6535903272985  -4442.41571921812 -9126.111423538496 -213.2443923193651  -4877.636344636134 -5853.274843466218 -129.1051198765347  6268.553503142131 8737.476275421497 -16.38468383238506  -8428.595839016685 -7244.459984294888 102.5563233378406  -10318.44423756681 -4978.129522618962 179.1488749575961  2405.978735188557 9556.331197309033 214.5630476533365  -886.0271321497872 9227.185829554564 209.8212621161292  -295.3040576869452 7866.978201562044 155.8683637254063  -4689.410106709862 3865.916975712355 89.37805740059983  -6663.988592064185 -6654.938851621002 196.2879916678014  3512.12224432351 8206.02301120379 -190.4952842796626  -6966.254242451744 -8232.898275891135 -134.230469174448  -1141.81526341468 7129.700482293951 -123.3964565729945  -2926.634428368521 3488.901692984653 -77.12656308194018  -1402.30456683552 9985.090680347988 176.857387221719  -3902.570091546346 -2487.79311274473 69.23793780729639  -1040.275991369963 -9499.160558041021 -216.4903251267907  -7448.276697583468 -3403.648699702623 129.0933615954283  -9694.611272071234 -4544.252682792797 215.6419109394923  -11232.31159644123 -2001.672978837645 238.0927365908634  -11577.46958468107 -2476.720664089569 97.516547800662  -11926.92516841073 -234.5931878333864 -62.27826379335238  -6018.478540613422 5912.178546106808 -147.9956199324013  -8216.57743488762 5870.347215788305 -207.5606408408434  -1161.732689903031 -10055.90616845268 -175.9541651555382  -447.6244875118274 8956.766449163582 -204.8655888781838  5027.449000026403 9144.949934267906 148.6796755645755  11122.37950536733 -2885.38229031891 202.8963451062992  799.1325912536394 -4476.132610472732 -71.1991029725621  1848.560766966011 -10158.50899877969 -97.46279325067431  -4416.578207141468 8032.549937992001 192.2154377242797  11612.96256918099 2455.807368226637 -98.59090514610241  7958.448003148167 7439.001560493817 155.7086107168265  9152.734382248986 6557.806619823678 -8.265067711782722  -9506.069713774739 -6113.76577965097 -146.2009673234272  -4031.104583820058 9736.013962658677 43.95259454549858  -6786.236347119237 8512.512599338503 113.6462921210907  -914.8828794723873 -8104.234565298591 -152.2432096323541  -4253.356854235975 -1771.160200716893 -70.62958013327174  -8047.766921004839 -2437.069322545557 -125.2425591609488  2873.898156174735 9970.863118323579 -29.23601427966834  232.3395879103809 -10288.6341293677 76.3662154980202  7310.079498705008 -7269.808577062877 219.9292211120021  11607.58962536765 2491.316918430784 99.12176572284709  7043.528274119062 -3812.193763454661 133.0796994073741  -10338.20643741533 -5360.487834755996 16.0460231700947  -2755.57524097953 -8306.17476000528 175.981461622158  7257.731304586921 5996.496963532135 -192.6000234398983  -11206.69679374161 987.1978883259045 235.7152272261764  3057.994566613259 -8921.281082248515 -217.2106985607111  4012.464297986696 6628.516497496012 128.6687367135334  1793.344339815061 10047.68812925025 123.9197238129696  -8098.946634613436 7081.910318044958 -219.3336282238197  10330.26196156224 -5091.707817245933 -141.0776111878498  -236.56864944748 4119.90402288805 66.63984243028857  9771.373370156889 -5243.956110200435 201.212321267061  -11621.40485695274 2563.644058717003 -14.94137353586241  -6336.74464213884 -8714.352824572776 -2.101470549363214  -3953.924204329246 -9634.438467019192 -104.6357730870368  10860.92773302946 4336.392694756857 -4.781913218153232  -3562.195301641554 6848.103121972449 134.3350147217627  4585.328529639546 6170.156225765842 -136.5721562157164  -5954.948644437452 1225.163615470068 -74.07557765690046  -4582.296138335233 9353.227793565928 174.7120423771314  10526.63530827951 -4764.509931203664 147.6215707391381  -926.4875781289556 -10272.33407272364 -56.17643064236032  -9435.61220951478 3429.584456660322 -172.8640432669481  -7149.506480888085 3278.774062888304 -115.6338704027166  -3712.719763969821 9137.320004932164 221.6748273546359  -8607.276711662395 -7160.397365831808 -36.59712784104669  -5.395083064505212 -10.70771809779302 1.308278115991611  -5354.949419679618 -5489.506415031198 0.7430988387091528  8030.746592469539 2096.576745053262 -5.193433453711668  -3226.067102267695 6024.59433242864 26.09051660174941  5996.505541532666 -4298.918898549207 30.25973417650644  -4330.902480045541 755.4629870510385 -27.99352876975327  -8198.946893193002 1187.028987478242 -1.175665492613807  1672.712160096367 6718.292147027262 -25.89952161577772  5774.538379414384 -3476.059122031867 -25.50264723057536  -4775.391424680423 -666.3815783452214 32.61066289076414  4379.440096206336 5076.117324143234 34.3735386171267  -1681.691095593857 -5847.221485172064 -42.54069464769017  1269.350551095924 -7806.393542883961 -0.4804121121845253  3679.014976749328 2385.495377909274 -34.85413948428859  -14
[...]
<PointData  Vectors="Forcing"> 
<DataArray  type="Float64"  Name="Forcing"  NumberOfComponents="3" format="ascii">-5.7461454220607178e-07 -4.6099089617640173e-08 -1.8743351888482725e-05  -2.9112354289422815e-07 -4.7056879847977089e-07 2.5536023466358137e-05  1.3446751969909014e-04 -4.4858747415322614e-06 8.9147075608543147e-06  2.2414342536355379e-04 -5.5979720919879582e-06 2.2935954975640853e-05  2.6739326465984433e-04 -5.0966130118156389e-06 5.1899399715112191e-05  2.7297623005583384e-04 -5.4396531906352048e-06 5.3204946847819470e-05  2.7605745014954721e-04 -5.8790538785805927e-06 -1.4882238925255912e-05  2.8433840181696124e-04 -6.3565924728682986e-06 3.2748656007327685e-06  2.6518956773384294e-04 -6.0117803491761765e-06 3.6108187431601660e-06  2.2438513481483195e-04 -5.9743096161128966e-06 -1.6273482869008966e-05  1.3470631794477197e-04 -3.6870275276419506e-06 -1.0240259353822440e-05  1.5414373491661222e-04 -1.0757308048080795e-04 7.1377431718969131e-05  1.6225647566373176e-04 7.8666129812379862e-05 -4.3367414220168006e-05  2.6716473016344307e-04 -6.7748986171384641e-05 2.6654808654081820e-05  2.3358587856672877e-04 -8.9890896686138950e-05 -2.5467954893917419e-05  2.6577241314892127e-04 6.4451273804557366e-05 -7.1255699878043684e-05  2.6598564451453023e-04 6.4038358138313926e-05 4.7888331928856003e-05  1.7483522530309690e-04 8.7130087502548814e-05 1.1544742914560441e-05  6.3441675130101826e-05 -1.0447242131216056e-04 -1.5243743371805800e-05  2.3380568184035915e-04 -8.3920183080789782e-05 2.6558963639700762e-05  1.6258289282229421e-04 -1.6260253811230732e-04 3.2729690978949193e-05  2.1899255777868930e-04 -1.4212447098257771e-04 3.8267228166589299e-05  1.4796367258755001e-04 -2.0057993330515209e-04 5.3809053421144860e-05  1.8644335597253682e-04 -1.6313142608671095e-04 5.4824630584980326e-05  1.1534841283659657e-04 -2.0486036434840186e-04 3.7065897029429569e-05  1.5681098438437155e-04 -1.7127621833193464e-04 -1.8414148834686417e-05  8.2389994994025716e-05 -2.1206387364620837e-04 -1.5746380912041605e-05  1.3135779372841337e-04 -2.0302025096087826e-04 -6.9857492158670933e-05  4.5749655104931353e-05 -2.3148491550042312e-04 -6.1150426837284900e-05  9.4812921448707049e-05 -2.1531959326388165e-04 -5.7949107202784786e-05  -7.6843626770826845e-06 -2.2670230248394917e-04 -2.5291453480892366e-05  2.0341200696846135e-04 -1.5983005519522954e-04 -5.1708115777464412e-05  2.3720698487214581e-04 7.0421273052071332e-05 1.3416457198876282e-05  2.2159780662434037e-04 1.2965171912625339e-04 8.6740624994280192e-05  2.3081628323136830e-04 1.0579537813024844e-04 -8.0069632035582869e-05  3.7607690062377690e-05 -1.9369840777956485e-04 -1.2636885738923982e-05  1.4398951188613295e-04 -1.6630650869597354e-04 -2.5424793227581526e-05  1.7099763878621464e-04 1.5195484337185270e-04 -2.0430847653928713e-06  1.4787781474822628e-04 1.9336933372263499e-04 -6.1295401480845112e-05  2.9316956219796453e-04 -6.9800814080979564e-05 -9.1488103996618367e-05  2.2497802104593529e-04 -1.2255582748131686e-04 -3.7422775890763639e-06  2.6795318037164630e-04 -7.5453514030179815e-05 3.5052118084293478e-05  6.6866836517301710e-05 1.0131900637229746e-04 2.0319135789458346e-06  2.3798645349773742e-04 7.2825638723342237e-05 3.5605334345858497e-05  2.1950697867010089e-04 1.3364933633382966e-04 4.6264066639105410e-05  5.8688686881108325e-05 -2.2940709543397021e-04 7.6492596973698135e-05  -4.7779804428157920e-05 -2.3099661537991737e-04 -7.0103677428738609e-05  7.4256930540211701e-05 -1.8021313229512766e-04 3.1414588288843734e-05  2.3915555258405451e-04 1.1468788681250693e-04 3.5180555231486783e-05  1.8139063843177489e-04 1.6966003911220604e-04 5.7044882008912166e-05  1.4667802804216616e-04 1.9123745018041389e-04 4.7803280403104208e-05  1.0598221547970931e-04 2.1498860997164058e-04 5.7885391914735215e-05  5.3521004313291584e-05 2.2550847794160553e-04 4.6082304378633568e-05  1.4949201570284988e-05 2.2831067970374073e-04 6.5275230474118822e-05  -4.7609221587053012e-05 2.3156399293723781e-04 5.4624309490916325e-05  -7.0470840146037451e-05 2.1734095812230402e-04 5.2339090030829764e-05  -1.3607443071596894e-04 2.0759515928783540e-04 6.0613523727820447e-05  -1.1346310290459992e-05 2.1636375950661267e-04 -3.7006966532336651e-06  -1.0841978356943084e-04 -2.1110784418916999e-04 -4.0469117438518994e-05  -1.3090823954873336e-04 -2.0350625388907599e-04 -5.7072413553501833e-05  -1.4554378905571349e-04 1.9194676803476851e-04 2.9390408341125024e-05  -2.0014828650662629e-04 1.6145290210880310e-04 5.0902023376567631e-05  -1.9109423116591128e-04 1.4022720589692734e-04 -1.8305627394546239e-05  -2.4576410084802507e-04 1.0451785424671047e-04 2.6026162126801491e-05  -2.4724937104715259e-04 9.9137507437718306e-05 -2.1245953276275348e-05  -2.4296930023674974e-04 1.1337649278397266e-04 8.2592549177233011e-05  -2.1103351995252809e-04 1.5457196944457087e-04 -7.1060063568199506e-05  -2.8131024291020275e-04 5.1775734268324607e-05 -4.1050838735039932e-05  -2.5269716958530058e-04 9.2605771559735046e-05 -7.6278006516029853e-05  -2.6256051803359959e-04 3.8732078012827848e-05 1.0356817353515047e-05  -2.7318455766560601e-04 -3.0488207914085671e-05 6.4121445767305362e-06  -2.0368644730608094e-04 1.4866131598956889e-04 -4.1757470282325256e-05  -6.1562006352791846e-05 -1.4554755259800392e-04 -2.6760610450634193e-05  -1.9079430045889780e-04 -1.7009493621546220e-04 -3.5794876839579260e-05  -2.4740122158792695e-04 -4.6465967813487476e-05 -6.2969286886022206e-06  -2.4581623843544282e-04 -1.0596013307425526e-04 5.3975832836869270e-05  -2.7525100767493383e-04 3.3655874498377116e-05 -2.9936205422645836e-05  -1.1227907154486373e-04 1.9900916551515908e-04 3.4995447416393139e-05  -2.3913062422491438e-04 7.1017704383750601e-05 -7.1197301695445362e-05  7.9599557946090433e-05 1.9920454431174485e-04 -1.1764818906981854e-05  -2.5177973806403766e-04 -7.1653799334230113e-05 5.3656862961350412e-05  -2.2008854144117291e-04 2.6939989562387101e-05 2.4704824801914524e-05  -1.6813805710185384e-04 1.3071585394252398e-04 -1.6844876031790766e-05  -1.9883914501367479e-04 -1.2930607544354292e-04 4.9049871632475368e-05  -1.8710730879166514e-04 -1.7049707792751403e-04 3.3681526035000218e-05  -1.5072876643690562e-04 2.0098952494781587e-04 -5.5045688668279249e-05  -7.1600507951271138e-05 -2.1106332818251989e-04 -2.2599782533851867e-05  -1.9153336646656849e-04 2.6813810099056564e-05 -1.6490482973788143e-05  -2.4808982205755951e-04 -2.3055219639286056e-05 -1.0884197485718774e-05  -1.2023590534772968e-04 -1.9026878617536149e-04 1.4169359904738698e-05  -1.0847778170821973e-04 -2.1830622507639939e-04 5.1221938024023605e-05  -1.1899898884988911e-04 -1.3877968791530849e-04 -7.0746755811890914e-05  1.3797381080057528e-04 1.8169104100051566e-04 9.9839908225464383e-07  -1.9641344400468923e-04 -1.6225513406332756e-04 -2.9845776035950134e-05  -2.4195688746975219e-04 -1.1168211775336525e-04 -6.9773527737528764e-05  5.9688369854278451e-05 2.2936049827387806e-04 -4.8442901661093175e-05  -1.9122024504684547e-05 2.2370123379444407e-04 -3.3060432839546389e-05  -5.0582770303425158e-06 1.9238050649202513e-04 -7.0144170778523631e-05  -1.1213685581110426e-04 9.5062596478182661e-05 1.6953290391463731e-06  -1.6225798843249592e-04 -1.5865350777504665e-04 -8.4007723444089981e-06  8.7100343123175356e-05 1.9732732084418186e-04 9.6472074707432773e-06  -1.6392543481723226e-04 -1.8720113782151558e-04 5.0727878523801454e-05  -2.5632477445718328e-05 1.7298159681448442e-04 1.6719576719676468e-05  -6.9614957777968970e-05 8.5666087682957943e-05 3.8875218155982641e-05  -3.0917252907834353e-05 2.3414769862201924e-04 -5.2841120374509620e-05  -9.5244634056912739e-05 -5.8891796736266361e-05 -2.6530607999204821e-05  -2.7473417457654229e-05 -2.2927711097509075e-04 3.3445351227371286e-05  -1.8246498095424960e-04 -8.1250981537837427e-05 -9.5090726322635729e-05  -2.3542185499837666e-04 -1.0735193444169798e-04 -2.9936444006783891e-05  -2.7129449982854199e-04 -4.6331012736610588e-05 -3.7196899185829922e-05  -2.5331203853829165e-04 -5.0814974030970699e-05 -4.3397540009424240e-05  -2.8298951085706735e-04 -2.7283840448523148e-06 6.6881574572368727e-06  -1.4501557672289746e-04 1.4741672655488541e-04 5.3924522311392271e-05  -1.9506929703642543e-04 1.4050983938422150e-04 -5.7717532165967363e-05  -2.9611819190585505e-05 -2.3224380085727801e-04 6.2538441814852732e-05  -9.0023824482027842e-06 2.1753110132145077e-04 5.3537893901562904e-05  1.1734061982040332e-04 2.0512523179113266e-04 -5.9671612325934510e-05  2.6683058519949733e-04 -7.2686982688368817e-05 -1.9952012463906851e-05  1.7264249068166078e-05 -1.0944028363926788e-04 -1.4351472574561715e-05  3.9826817731850740e-05 -2.2681636268279817e-04 3.3762688325777493e-05  -1.0459094476014505e-04 1.9503808739718140e-04 -1.6297347463626129e-05  2.5772162535021192e-04 4.9914682409327597e-05 3.2929123551723563e-05  1.8442307128343558e-04 1.6476696410711711e-04 -6.6801732316972931e-05  1.9663706932831386e-04 1.2982588475056746e-04 2.7600409253235708e-06  -2.1921451619458940e-04 -1.3531954933095156e-04 5.5263039303454313e-05  -8.6963876639587650e-05 2.0751520764625045e-04 -1.9813224843669475e-05  -1.4807538744686439e-04 1.8160137541323865e-04 -5.7070645771584211e-05  -2.4372680037556912e-05 -1.9693546803784345e-04 6.9818741241563614e-05  -1.0357783088248743e-04 -4.1346402577874967e-05 3.3584974589236430e-05  -1.9828668005268638e-04 -5.7616272298243088e-05 4.0255655633919253e-05  6.6887849326564562e-05 2.2094435110445854e-04 1.5613971475006133e-05  3.2174756726955156e-06 -2.2659023552441736e-04 -3.6152125131521209e-05  1.7521614699600034e-04 -1.7774263944572277e-04 -4.5559778078338571e-05  2.5485357827116531e-04 4.9929072730086340e-05 -3.7101065729015685e-05  1.7030498267979049e-04 -9.5245134915597290e-05 -7.1597829814870707e-05  -2.3478018688208790e-04 -1.1639000001871481e-04 -4.0994605760130863e-06  -6.9450797369903741e-05 -2.0167113339822525e-04 -8.1121299301277486e-05  1.7739992797879668e-04 1.4327026315166241e-04 2.9875031210967903e-05  -2.7014437395862524e-04 2.7123984910000451e-05 -1.7229017369560184e-05  7.2185692860530045e-05 -2.1877588797247386e-04 6.6099722672610181e-05  9.9060897006398254e-05 1.5910373991099688e-04 -2.6090958403281470e-05  4.2691055328237118e-05 2.1780242943158915e-04 -6.7299163189182715e-05  -1.9386346655746452e-04 1.7326959069161971e-04 5.5777932250574363e-05  2.3737863092573210e-04 -1.1796949711742033e-04 3.8767625805726633e-05  -4.4187346330572741e-06 9.9531598084139051e-05 -4.1886337872697570e-06  2.3302801629433703e-04 -1.2817012126493780e-04 -6.6903062752004039e-05  -2.6452262073035861e-04 6.1375409038834638e-05 2.8090093162189274e-05  -1.4413693724750156e-04 -1.8837147507616756e-04 -1.7390384473517931e-05  -9.0164175085315467e-05 -2.0862579627536299e-04 5.3452254201881722e-05  2.4821984418879487e-04 9.3085070822619261e-05 -6.0950231656549040e-06  -8.4447701744880236e-05 1.6741340800582570e-04 -2.8592189940880468e-05  1.1499423695510683e-04 1.5226656889292080e-04 1.7772069214662007e-04  -1.4333280258970290e-04 3.1333832762140746e-05 6.9047082287691296e-06  -1.0598160549868290e-04 2.1930593819437716e-04 -4.1411757851282909e-05  2.4335383761313724e-04 -1.1134491555900870e-04 -3.7366111732991621e-05  -2.2408940184967348e-05 -2.2331735622198759e-04 2.7280638519500775e-05  -2.2715855004328616e-04 8.5480739035331794e-05 1.5752896703180778e-05  -1.7340780972578308e-04 8.2882711749451230e-05 7.8262905925722870e-05  -8.6709705378126947e-05 2.1867847949987805e-04 -6.0970249387992808e-05  -1.8989596929911012e-04 -1.4822002529890283e-04 2.0400411860840186e-05  -1.2710776162215603e-07 -2.3530515018905205e-07 7.4103425833744394e-06  -1.2593932527021591e-04 -1.2483432444994712e-04 1.5029978723153630e-06  1.8663066860063565e-04 4.6185846169184809e-05 -1.1463929040406038e-05  -7.5424359554148812e-05 1.4511466395678607e-04 -2.6170638740208175e-05  1.4159395699893425e-04 -1.0385240171088684e-04 -2.6483160380191306e-05  -1.0418597183977909e-04 1.9286469205784016e-05 1.5975056606133635e-05  -1.9240912449404788e-04 3.0341741088767525e-05 -3.0944596178719901e-06  4.1703956894313437e-05 1.5856027774143291e-04 3.6134347559799324e-05  1.3790566708035467e-04 -8.5492692372123217e-05 2.2287921503655295e-05  -1.1522010468613889e-04 -1.4455107929640233e-05 -2.0914927616189448e-05  1.0651277790836748e-04 1.2072271063702382e-04 -2.5772390193031141e-05  -4.2061548518091505e-05 -1.4018510774705019e-04 1.9961244654304832e-05  2.7351094912404365e-05 -1.8078507522225389e-04 4.4794238345967081e-06  8.9745431412258851e-05 5.6510706278184503e-05 2.5285547068909788e-05  -3.5866163582709544e-05 -1.5480544910998617e-04 -2.6409180760682959e-05  7.9197986411947763e-05 -2.4039097406376179e-05 -3.2615459526248615e-05  -1.2774959780216606e-04 1.4709763988624564e-04 2.7459982581573867e-05  -1.9181482927860011e-04 -6.3675288470950390e-05 3.0499425040045461e-05  2.0187667480445461e-04 2.8158681090178485e-06 -1.2354519599266051e-05  -2.8332969159454897e-05 1.0392955324473660e-04 -2.3939163704799786e-05  3.9826623821875180e-05 1.8299808405779905e-04 -3.7403710213285935e-05  1.6689566011759369e-04 1.1363718258465244e-04 4.3046761724267505e-05  1.4976394757957527e-04 1.4094071624009928e-04 5.1029014066621986e-06  -1.8718130380946201e-04 8.2248932993428164e-05 -4.0149756980064601e-05  2.1405346872576438e-04 -6.1369239813208179e-05 -5.9195188160669286e-06  -4.7494217039505600e-05 1.4466509527358724e-04 3.1564478621351209e-05  -2.0972589581222034e-04 -5.9350783155585473e-05 -4.1969103844233232e-05  2.1502282856047055e-04 5.4476577603842409e-06 4.2390388853731745e-05  1.3998822890841202e-04 -1.4559560675562937e-04 2.3151198844318129e-05  -2.0338195521172947e-04 6.5341927918122518e-05 3.3244541569746963e-05  5.4265006610130523e-05 -7.8483009543172595e-05 2.9945039068490280e-05  -7.3261780925640887e-05 -1.8290369834591329e-04 5.0505033166070779e-05  -6.8756697402914840e-05 -1.8701568278497283e-04 -5.1409390422417617e-05  7.7248027125334493e-05 -1.8028396651359466e-04 -5.1869170718844105e-05  -1.5951716663097106e-04 1.4067467916289205e-04 -1.6837889043686988e-05  6.8155691045548530e-05 -1.8280321184400975e-04 5.1290564098397888e-05  -4.3312853526596048e-05 1.9038593275199560e-04 1.2257829058358365e-05  -1.3946565598536316e-04 -8.8571100340914346e-05 3.4074425664855143e-05  1.9903385346062424e-04 8.9173052787350075e-05 -3.7999907974390403e-05  3.2915475211607585e-05 1.1161593549444781e-04 -1.1573157074592652e-05  9.4712060223630225e-05 5.9396348947618127e-05 1.1022011818499718e-05  </DataArray> 
</PointData> 
</Piece>
</UnstructuredGrid>
</VTKFile>