<?xml version="1.0"?>
<VTKFile type="UnstructuredGrid"  version="0.1"  >
<UnstructuredGrid>
<Piece  NumberOfPoints="201" NumberOfCells="657">
<Points>
<DataArray  type="Float64"  NumberOfComponents="3"  format="ascii">-23.33245858984522 -72.77133514060863 227.4070994721268  -19.36509107157821 72.37989150153446 -229.9130856687044  3228.075192196157 57.32658415198888 -246.4004044728207  5466.447915192166 25.39200730671082 -278.0717429445122  6691.521787789526 -2.183804551095068 -279.7168269885092  7310.243993404507 -12.16087769713681 -171.9161960665688  7502.538482361851 -13.73070278545725 7.301550267559685  7311.482131337556 -16.30792450019934 184.8562330222008  6691.76593484287 -26.75237174986345 290.5700651888121  5464.115688343589 -47.2466979306184 289.7112700661834  3228.093938677546 -64.62820836986646 251.211818769702  3872.71340973255 -1055.289343544597 88.02457219963587  3915.291195853545 797.7289640295644 -12.09444796090292  7241.368373337854 -999.4158253475729 130.5084067413988  5897.525807288906 -1090.814383549978 574.3944089831124  6853.526956979009 982.9802777077346 -4.250375871561212  6824.654387033643 989.0963451667254 -455.9256930730859  4225.518345019339 1015.573821259982 -570.6334257344419  1590.192404579794 -1033.350097002146 567.8356606239996  5929.678664535887 -975.6749131429254 -4.868751172672395  4300.856472986126 -1849.255291698973 287.7938555214803  5805.723409341545 -1843.08989094788 242.8844309439134  4087.09584422536 -2513.951676380592 464.5579467554123  5396.602159169474 -2403.575969118779 452.8608013727211  3493.30855902311 -2904.673679062375 628.6985425841423  4809.209755471714 -2680.714769993717 651.2444183355451  2605.443840729286 -3048.71654813344 791.0289688415214  3808.041023753764 -2738.710592542353 836.2557712948267  1402.552440990454 -2968.491970307136 918.3291215781493  2613.451084225001 -2526.114172498828 924.3249741062298  -104.2451969126684 -2665.511973435172 962.9246704761474  5627.346780984193 -2249.145689392421 671.0200212524333  5940.72827881054 955.924302651109 18.38802256900818  5719.003569650481 1837.827699989891 -233.8055615266836  6480.517309366696 1781.359909732256 -274.0309484852482  1066.869654808827 -2091.280660707971 876.6644986684099  3752.939592266116 -1868.877890284899 802.1368138643425  4348.538724909314 1736.036697287877 -251.8734487867933  3920.074314622628 2460.330170663098 -451.1872921605391  7248.65810995868 -976.1881936111499 298.713801471868  6464.287629810335 -1931.025993820829 437.2247291414267  6889.59276026411 -1005.737178146804 21.36739309134174  1566.330619996651 1033.60056895138 -562.7817183400226  5865.713035641876 970.2166059289193 -545.7387091808498  5643.089106048733 1840.623786530096 -697.9181848131213  1775.524522555022 -2894.569403373051 615.0182261252704  -1242.444585380155 -2995.86802157546 915.1788738155905  2009.305675100443 -1863.61037805135 361.4456506896879  6428.830045663087 1803.401706168738 -529.6262711246358  4974.292831325106 2490.672667204971 -728.3015354929239  3788.202876892752 2414.545388678686 -862.2503940188651  2886.505731814951 2890.772184851972 -855.90643685475  1341.406807036171 2733.809256155492 -945.6383340158758  356.1640882184378 3066.093192379621 -896.4948459601047  -1391.427783218814 2807.255030902344 -946.8196878798831  -2179.668303515368 3045.19702930293 -852.7791969980892  -3810.390663639696 2706.504340156404 -851.6521472494703  -441.3259553655847 3163.374623013223 -783.3059488304731  -2794.55835766369 -2596.523359121731 916.4589321322445  -3608.825884578012 -2837.831386099001 822.3998064249711  -4318.70347576639 2806.98709801813 -716.0272498843774  -5615.30866521913 2294.325262114696 -671.774446706908  -5871.235273674449 2292.882713172451 -509.0930963147681  -6802.501281765388 1573.021438682333 -442.2224809006437  -6880.621755114375 1498.409925846706 -247.9738557186023  -6335.34133721994 1494.886476790519 -598.1962360608214  -5802.212387603075 2134.707466737053 -348.0935225692517  -7198.131287908029 678.5469687572177 -326.5888004664925  -6639.787208322959 1236.750148451744 -75.99363060234826  -6602.503263487539 452.6033322790844 -401.0221769211498  -7046.050951194628 -467.8319866983948 -122.9461378192531  -5327.536435521305 1799.559301734045 -240.2570862915198  -1433.610519959306 -1517.161493646765 710.456314439868  -4946.566926849016 -2289.334973916407 774.4614704909395  -6184.172064998534 -619.5955099630138 -119.3060629655978  -6296.016472356629 -1478.322155265155 133.6719820065978  -7309.986101866019 437.1444857235132 46.68549211957652  -3023.235214121118 2300.499794252493 -895.2296894028203  -5971.921520065104 787.6836666470839 62.25738070771761  2020.776053562197 2264.918189012681 -450.2182199874342  -7038.809949650492 -1229.287935637449 166.3745442729987  -5388.226882028126 306.3247674403121 -366.7636203091051  -4306.794118005453 1365.283932857716 -167.7390759202103  -4996.67589154413 -1562.284917266055 183.8035188797972  -4884.907848249351 -2274.967621496076 377.9099661591967  -4165.989211790634 2533.91087294828 -471.5941897284645  -2083.59985523947 -3098.653179578463 794.6736987651909  -4664.258030696315 201.9236965287354 189.3878395070714  -6133.921906023031 -359.2850415683135 383.6123461504524  -3095.455216797489 -2254.758908196888 420.3026036910745  -2896.754206854488 -2788.568128160896 563.6771221507186  -2922.961624809663 -1453.935304370722 227.0791363361071  4085.465143083912 2839.427972466273 -685.8246427310775  -5366.239176562688 -2438.804366394903 653.1249040227457  -6421.209430840127 -1713.365531673381 560.4659112817858  1557.642435390772 2820.994302455781 -589.9908475128656  -616.4622030278643 2583.919684275932 -542.3699543514464  -228.7664042812561 2003.269873973795 -406.7699038701262  -2818.991559461811 858.2682565861787 -55.08710417625208  -4059.222450254566 -1917.623037729187 802.5986787458484  2175.562325716743 2258.103219019002 -897.0819302967967  -4507.239466524607 -2691.170793085264 545.1863681206803  -736.7807101369648 1805.215851491652 -802.6305700021394  -1743.217050667509 854.5403867601627 -508.0193620850106  -976.8151509153604 3000.39926332189 -655.9241493796682  -2251.614412208148 -629.1242309144616 429.6801172636444  -649.3363080628116 -2691.999432668376 567.016900124544  -4373.500745099909 -933.0252448984683 548.5719488501495  -5899.01907211049 -1438.48417977639 633.7591907340924  -6915.393392347178 -700.1216174829959 401.4698007466925  -7231.388014798831 -905.491835080767 276.531597845332  -7457.362504582062 -107.1899890122405 -37.33055006104154  -3668.706456216125 1571.272414696036 -734.2705243818899  -5079.495177598625 1716.530679193233 -735.699482446287  -737.5609424811336 -3020.688936885009 661.625089633628  -325.6220899983958 2481.847300088808 -944.8275596294616  3297.487943942833 2873.643802659705 -602.3430794494313  6849.19433351233 -969.7151367793948 456.3542286323192  509.8021644687053 -964.3598516363105 119.4001519056896  1308.820806141921 -3112.135086626875 721.1563427578182  -2857.291501300322 2185.702904964018 -419.1111620595411  7240.517822272663 916.8386477860561 -283.6930393478625  5117.999589908207 2472.176298831818 -460.0079411746504  5848.994451451693 2280.712790834502 -513.0751553456928  -5998.280269040828 -2083.958946636053 354.4214359238435  -2737.322208971759 3052.844137637167 -717.788075974983  -4477.032624787576 2735.61835498455 -571.6279308623991  -534.9360048517442 -2074.50939115267 429.8437629795581  -2478.309952704543 -341.7534009276191 -104.3140577669479  -4739.019072537681 -604.5528520615071 -75.29764762948676  1896.705402511861 3100.17038563633 -790.2505458163947  211.2323339183907 -3155.702797187761 838.3503858626982  4661.82399194862 -2202.673731303938 811.9864733497379  7248.783478839971 929.1071047858852 -115.9487494091007  4214.063056397193 -1021.454868404565 576.9334031313271  -6491.43546103107 -1891.04753956085 430.4801228633276  -1682.432857801924 -2266.265957703692 904.3621855408819  4401.086126602671 1726.009057117894 -753.7653311665949  -6881.851180959641 301.9146502375875 183.2041474017506  2047.725846797134 -2488.197129723854 507.5135808600177  2442.863458329903 1652.580166551598 -296.4802443073314  1173.915903454467 3082.402971296762 -697.0251285738291  -5143.405871598246 2200.509363806083 -772.1077553151753  6528.832382831587 -1733.140469584144 257.7958770843666  -166.7160993906053 878.9076544376979 -93.37679626057665  6111.824419396686 -1693.91808624631 637.3038979396737  -7299.073531259935 896.5678927383736 -211.4573592428906  -4129.874718548564 -2849.163560282639 679.9089286598281  -2609.719065262675 -3026.518091412619 679.3708507928088  6828.173064047345 1587.555627492448 -341.9076765273359  -2244.890730392151 1704.751750293253 -312.3497753012895  2731.005362013524 1611.849500197901 -744.6571750303631  -3473.844230701549 339.3073206991132 -347.4371606271733  -3078.461197139811 2883.602513638425 -600.3511019544162  6611.041957575242 -1622.434778376025 517.1470191326831  -581.7829621364316 -3154.044572179278 751.3883205085344  -5672.330273590038 987.682025671942 -560.0324473648104  -4248.716642533998 861.0646504029837 -529.8103570846704  -2482.470494199457 2670.633542353298 -538.6391988474746  -5496.114638667282 -2436.689721645606 528.7000160734036  -18.7772010819626 0.6794356873396482 -0.8226740626000041  -3173.540794464243 -1405.282393327794 448.4179205461656  4694.723806011175 555.2355337638114 -172.5714997631564  -1983.976916154945 1464.794934705501 -417.3755532710475  3600.459961645515 -1078.320541818298 399.6053950572528  -2520.379890847678 195.7615393494191 -167.2040402336198  -4814.035507920046 297.0449495113078 -93.31766776862207  968.2834825508687 1653.118108515469 -581.4668763840508  3437.694577760889 -826.3468610286608 191.5206274527256  -2769.702638995375 -187.1188886420264 162.3027144075584  2580.288204151352 1225.08906548465 -308.545731283896  -973.8925237309523 -1392.170404107629 364.8461415235869  823.6166136895796 -1984.752954079429 624.087625949787  2121.046569273838 588.3909282139007 -306.2181803
[...]
<PointData  Vectors="Coriolis"> 
<DataArray  type="Float64"  Name="Coriolis"  NumberOfComponents="3" format="ascii">4.3170424667276626e-09 3.0151693691328681e-09 -1.6808861527717594e-09  -4.0958462062314135e-09 3.1090742912528939e-09 -1.7332359427651475e-09  -4.6698424326935395e-09 -1.7598104310562757e-07 9.8105300993966079e-08  -4.9480550367623946e-09 -2.6644458760404546e-07 1.4853660373758853e-07  -3.5835753617061900e-09 -2.8923544546407014e-07 1.6124197205914311e-07  -2.7013572219122831e-09 -2.9350867143059379e-07 1.6362419523649676e-07  -2.5210328313674862e-09 -2.9401043945879913e-07 1.6390391913497741e-07  -2.5416460340584402e-09 -2.9361995167500652e-07 1.6368623136084331e-07  -1.8816565222068071e-09 -2.8933557590617841e-07 1.6129779243040799e-07  4.3524055162700952e-10 -2.6629753421040250e-07 1.4845462492219458e-07  2.6690463751560887e-09 -1.7554253834048362e-07 9.7860844879758894e-08  1.1516558416630808e-08 -2.0284946944973953e-07 1.1308381803878884e-07  -1.0777035388043644e-08 -2.0826028783126362e-07 1.1610022228651497e-07  2.2047674111559252e-09 -2.9299455299901281e-07 1.6333758627801634e-07  1.0632603443012847e-08 -2.7032783659977360e-07 1.5070142390706389e-07  -7.7275303977021491e-09 -2.8652596962189567e-07 1.5973150287256796e-07  -8.9023850461332487e-09 -2.8596717876914890e-07 1.5941999008781627e-07  -1.8698064544229856e-08 -2.1771339283435324e-07 1.2137010644727116e-07  2.1655042337331101e-08 -9.0018256337623225e-08 5.0183065045556136e-08  5.3300184592001614e-09 -2.7362256777726118e-07 1.5253815920626105e-07  2.3409627659774857e-08 -2.1479284723944251e-07 1.1974197082766722e-07  1.6379760891331213e-08 -2.6220350218139809e-07 1.4617229815905991e-07  3.6720875156431194e-08 -2.0080207085987959e-07 1.1194244138043906e-07  2.7213284357625362e-08 -2.4388187635836695e-07 1.3595842179859052e-07  4.9633375199557074e-08 -1.7353481752663214e-07 9.6741587650237393e-08  3.6977619918496849e-08 -2.2300631243121301e-07 1.2432078488980721e-07  5.9642614868719588e-08 -1.3260997557026052e-07 7.3926948826608436e-08  4.6522253750602491e-08 -1.8668203859775741e-07 1.0407085481251203e-07  6.4182536791607450e-08 -7.3334110729288329e-08 4.0882045470678374e-08  4.9946820692657691e-08 -1.3615336174626904e-07 7.5902303451177460e-08  5.9515233946204338e-08 5.3368494739488781e-09 -2.9751683179135404e-09  2.5167038251060385e-08 -2.5100375613821214e-07 1.3992870261471890e-07  -9.5982824390944881e-09 -2.7440944484256842e-07 1.5297682470099243e-07  -2.0279064127651233e-08 -2.6043789233948180e-07 1.4518801211368644e-07  -1.5706149216502217e-08 -2.7371591479383223e-07 1.5259019797700591e-07  4.4345310995606527e-08 -5.9113071088436666e-08 3.2954149659903540e-08  3.1893549036928922e-08 -1.9305763373441401e-07 1.0762509945647572e-07  -2.4394852302602491e-08 -2.1914279335226889e-07 1.2216696368584820e-07  -4.0160693847834892e-08 -1.9569911552916952e-07 1.0909766355753715e-07  2.3667663904813549e-09 -2.9270782489326011e-07 1.6317774208899502e-07  1.4755289773300744e-08 -2.7347779331001123e-07 1.5245745083884187e-07  2.9482411359101604e-09 -2.9088820359446077e-07 1.6216334592413910e-07  -2.2381805723867748e-08 -8.6392910797248297e-08 4.8162019999061379e-08  -1.3686576978302185e-08 -2.7146873771919636e-07 1.5133744950249220e-07  -2.3534171278413479e-08 -2.5617723267200283e-07 1.4281279435310063e-07  5.6926445191814597e-08 -9.3475369008155415e-08 5.2110324215790013e-08  6.6059019736430891e-08 6.5585865203434288e-08 -3.6562580452887731e-08  3.1177027695835634e-08 -1.1113928323492820e-07 6.1957541798816636e-08  -1.7174886433365918e-08 -2.7168377554028520e-07 1.5145732804049082e-07  -3.6845257452157711e-08 -2.3090094091601939e-07 1.2872185497138750e-07  -4.5086901084141080e-08 -1.8980199338132081e-07 1.0581015637435917e-07  -5.8695923018028279e-08 -1.4623289586892981e-07 8.1521407142869338e-08  -6.0770284357425225e-08 -7.0062094073221981e-08 3.9057972984029908e-08  -6.8239765006500636e-08 -1.6619603045873658e-08 9.2650386112157631e-09  -6.0496877787385992e-08 7.6166859356659926e-08 -4.2461236341604888e-08  -6.1405475879266074e-08 1.1458986710700133e-07 -6.3881161317150063e-08  -4.5518196983373250e-08 1.8811876960235335e-07 -1.0487179862535570e-07  -6.8601719342916810e-08 2.5713393703246622e-08 -1.4334613457878132e-08  5.1769766476166862e-08 1.4499838402972694e-07 -8.0833195768346828e-08  5.1120979771426675e-08 1.7714691249813713e-07 -9.8755245815597743e-08  -4.2645007203055987e-08 2.0638487419812545e-07 -1.1505472320479411e-07  -2.4993078879553268e-08 2.5119504325926407e-07 -1.4003534069491167e-07  -2.2044058328909816e-08 2.5701408809997366e-07 -1.4327932161195022e-07  -8.3030316081055595e-09 2.8191893607670315e-07 -1.5716318980506862e-07  -6.7913279384629130e-09 2.8300813341366929e-07 -1.5777039175534190e-07  -1.1072206679640800e-08 2.7501522406244837e-07 -1.5331453239753346e-07  -1.9772957820985997e-08 2.5831264263258384e-07 -1.4400323528486949e-07  -9.0588538930243859e-10 2.8973544638279981e-07 -1.6152071083556776e-07  -5.4298213031117118e-09 2.8255401164397055e-07 -1.5751722952764957e-07  -1.7261296688654177e-09 2.8578163875381128e-07 -1.5931655588416586e-07  4.1447794779090044e-09 2.9009561582108363e-07 -1.6172149684369788e-07  -1.7533504059124217e-08 2.5201014767078900e-07 -1.4048974227262113e-07  3.2283863125085120e-08 8.1129964023995664e-08 -4.5228050702179456e-08  3.4464008124396621e-08 2.3032674701039953e-07 -1.2840175534619131e-07  5.6194680611837814e-09 2.8009238870347383e-07 -1.5614493251628290e-07  1.3357292998359301e-08 2.7640190057981028e-07 -1.5408757200859866e-07  6.4277769220645969e-10 2.9100232344762494e-07 -1.6222696506371484e-07  -4.2401120670533061e-08 1.5801659402908607e-07 -8.8090542286194259e-08  -3.3467349681909685e-09 2.7452170542393294e-07 -1.5303940734017986e-07  -4.2267338899286363e-08 -1.0827036876217351e-07 6.0358189317955443e-08  8.5129627216900252e-09 2.8642750635205528e-07 -1.5967661191071209e-07  -3.5373773190582227e-09 2.6182233809267378e-07 -1.4595980812608518e-07  -1.5171759244593358e-08 2.1977465251739436e-07 -1.2251921033972915e-07  1.9157909045820836e-08 2.4219626785437328e-07 -1.3501873462135845e-07  3.0980372026973059e-08 2.3035835785733848e-07 -1.2841937765140589e-07  -3.5984247579868541e-08 2.0431028276156144e-07 -1.1389818717266360e-07  6.4215073093591539e-08 1.0786351403688780e-07 -6.0131377358095555e-08  1.9953799824944571e-09 2.3837708654078600e-07 -1.3288963068091195e-07  6.3984370317279947e-09 2.8033492073376810e-07 -1.5628013843058366e-07  3.7611487543183447e-08 1.6086215719375539e-07 -8.9676876960887929e-08  5.0613490518018089e-08 1.4845758460166258e-07 -8.2761618894606752e-08  2.2868781742836666e-08 1.5824054332187231e-07 -8.8215388760498729e-08  -4.9604893308689970e-08 -1.9855540171071048e-07 1.1068997606245117e-07  3.3131356364367390e-08 2.4141032037880461e-07 -1.3458058735108771e-07  1.7038060924172042e-08 2.7507397765476744e-07 -1.5334728614621756e-07  -5.6986112415578016e-08 -8.1743116674184390e-08 4.5569868913052999e-08  -5.0517124343691349e-08 3.5487820393994353e-08 -1.9783626917604533e-08  -3.6505770133431508e-08 1.4000235909292539e-08 -7.8048029130233494e-09  -1.0086095014214504e-08 1.5487514531642015e-07 -8.6339258363367234e-08  3.3300249357932701e-08 2.0254578800449424e-07 -1.1291452276092068e-07  -4.7993904601979111e-08 -1.1546795843930732e-07 6.4370676624798227e-08  4.0960436694160882e-08 2.1219793087774034e-07 -1.1829536586257365e-07  -3.8367218466656482e-08 4.1648342000191893e-08 -2.3217973116434017e-08  -1.7174094797042554e-08 9.8422662398259022e-08 -5.4868324160421730e-08  -6.1745494122393210e-08 5.4246140783829440e-08 -3.0240950249194601e-08  1.4071100967026327e-08 1.2651147538504065e-07 -7.0527178114238993e-08  5.3927638382231746e-08 3.4631183210693155e-08 -1.9306071794465858e-08  1.7014243977652056e-08 2.2276669971883540e-07 -1.2418720642672422e-07  1.8014798017916535e-08 2.6784118098225200e-07 -1.4931517176581011e-07  6.2421916650672235e-09 2.8785188983584200e-07 -1.6047067227051920e-07  6.0186532256616046e-09 2.8895437943551714e-07 -1.6108528434526375e-07  2.6498915915357105e-09 2.9205336942906773e-07 -1.6281289852875271e-07  -2.6140233030080366e-08 1.9136533559393708e-07 -1.0668168296392042e-07  -2.2080248133722305e-08 2.4326987000435972e-07 -1.3561724262093293e-07  6.3410526468776474e-08 3.8974902168217678e-08 -2.1727593159726529e-08  -5.4827391645500702e-08 1.9456308535979203e-08 -1.0846435340243033e-08  -5.3182543036504272e-08 -1.6541961838458528e-07 9.2217554604367692e-08  4.2664946273562902e-09 -2.8919937443366284e-07 1.6122186330633216e-07  1.4865332579291654e-08 -2.7989305381884581e-08 1.5603380799678978e-08  6.5072223891766521e-08 -6.8540029629358149e-08 3.8209457781697483e-08  -3.4781482271057465e-08 1.5295808009217766e-07 -8.5270539497230791e-08  -6.4830334798225171e-09 -2.8929038365910961e-07 1.6127259881339615e-07  -3.3454039359576079e-08 -2.3624865187948277e-07 1.3170307831476998e-07  -2.5989915077809329e-08 -2.5579309505978104e-07 1.4259864665056951e-07  2.2665615912896693e-08 2.6298017652958109e-07 -1.4660527587846692e-07  -5.6887377531058625e-08 1.4054895648248836e-07 -7.8352744345458614e-08  -3.8836542709311338e-08 2.1298658615452608e-07 -1.1873502266846673e-07  3.8617863480084128e-08 2.9480567145379930e-08 -1.6434724230690988e-08  3.7585404294069423e-09 1.3770363831642566e-07 -7.6766546251737394e-08  7.0640428239770683e-09 2.4052277943203112e-07 -1.3408580410517058e-07  -6.6169888092439809e-08 -9.7677023337028030e-08 5.4452647885045637e-08  6.9404561992813142e-08 -1.1201621216345668e-08 6.2446409093642217e-09  3.1994032148798740e-08 -2.2278902563928463e-07 1.2419965260335218e-07  -6.4173893547099603e-09 -2.8940427377676614e-07 1.6133608988081912e-07  1.5469926395406923e-08 -2.1614769298950286e-07 1.2049726553307646e-07  1.8079522312091070e-08 2.7523220672468822e-07 -1.5343549513882586e-07  4.8502770549038412e-08 9.1314775007049748e-08 -5.0905843772535525e-08  -2.9595607817140734e-08 -2.1977114147517537e-07 1.2251725301610123e-07  1.0285739710979617e-09 2.8917264768032226e-07 -1.6120696376866135e-07  4.5313072848254157e-08 -1.0966954585659525e-07 6.1138197707323400e-08  -2.7847608367898556e-08 -1.3331438070200931e-07 7.4319638154120070e-08  -6.5419234196743122e-08 -5.9997161605666812e-08 3.3447009372337057e-08  -2.8095074187316917e-08 2.4070799413985818e-07 -1.3418905695751858e-07  1.1613986936338077e-08 -2.7772374663631615e-07 1.5482447015940299e-07  -1.3121328613442310e-08 1.0019680854715826e-08 -5.5857368996578814e-09  1.5518726949409777e-08 -2.6855054198928018e-07 1.4971062387746800e-07  -1.3809700506692003e-09 2.8929482620511491e-07 -1.6127507542852135e-07  4.7116510309940063e-08 1.9683223456276136e-07 -1.0972935082277136e-07  5.8694496360848763e-08 1.3340995696000523e-07 -7.4372919674635323e-08  -1.2333618899206303e-08 -2.7995087389490016e-07 1.5606604133206630e-07  -2.6500630719798475e-08 1.2449859644521452e-07 -6.9405045350555209e-08  -3.3106609015858460e-08 -1.4770064977485052e-07 8.2339645495047775e-08  -6.3880337391936305e-09 1.8755367756581346e-07 -1.0455677307853734e-07  -4.9941125276019715e-08 1.5723893071354379e-07 -8.7657013240696836e-08  1.1327913435533457e-08 -2.7873027976655117e-07 1.5538558875467581e-07  6.8182016884940358e-08 3.0420187778055614e-08 -1.6958540679110646e-08  -1.0038987240114756e-08 2.6702796224060542e-07 -1.4886182140479812e-07  -1.2916284677351387e-08 2.1845943497831916e-07 -1.2178600743181067e-07  -4.7428523773518505e-08 1.3158973914980596e-07 -7.3358190968674768e-08  3.1399955829227268e-08 2.4537557421715995e-07 -1.3679112329555221e-07  1.5993890104626139e-10 3.2018636773922778e-09 -1.7849638476325115e-09  2.4503878695426239e-08 1.7000096092493515e-07 -9.4771545539673821e-08  -9.3383718456240384e-09 -2.4022145550185559e-07 1.3391782308661932e-07  -2.4546102287296506e-08 1.1129919257548791e-07 -6.2046687502868177e-08  1.5858613800752310e-08 -1.9183086852005763e-07 1.0694120664348064e-07  -3.2456163069933103e-09 1.4122505228187949e-07 -7.8729651884642913e-08  -1.9043755621553126e-09 2.4417259471834263e-07 -1.3612049046068325e-07  -3.3088204308719101e-08 -5.3072405487795746e-08 2.9586620370972883e-08  1.0577274818937284e-08 -1.8563801153137860e-07 1.0348883422787751e-07  5.1261107608221971e-09 1.5366617384556090e-07 -8.5665285144725738e-08  -2.0985630148690818e-08 -1.4217101603107339e-07 7.9257004471639149e-08  2.5186719651140027e-08 5.5370248535549113e-08 -3.0867613936293552e-08  3.9139300589916335e-08 -4.6597215533588553e-08 2.5976853953863397e-08  -1.2114650559611468e-08 -1.1853357631505804e-07 6.6079686635907768e-08  3.2401812692432018e-08 4.5444520298562081e-08 -2.5334253415811701e-08  4.9129575056341840e-09 -1.0689089840969638e-07 5.9589166974674981e-08  -2.5128856484299402e-08 1.7650414117884946e-07 -9.8396915891895942e-08  1.0616801110158545e-08 2.4203041555792311e-07 -1.3492627585888791e-07  -1.6689858827426537e-09 -2.4806474667912118e-07 1.3829027382420868e-07  -1.5256904078881553e-08 4.4034855524336040e-08 -2.4548398391114294e-08  -4.1766412102058236e-08 -5.3334982326236171e-08 2.9733000795333612e-08  -2.1884766230960194e-08 -2.1224853624843111e-07 1.1832357716895014e-07  -2.9388786135804479e-08 -2.0346416476556112e-07 1.1342649624954441e-07  -8.0850819523688151e-09 2.3828452946065607e-07 -1.3283803228119273e-07  5.4568196733191670e-09 -2.6277940353666714e-07 1.4649334964735907e-07  -2.8372635954335440e-08 7.1022052345974924e-08 -3.9593127189438105e-08  1.0917773307404454e-08 2.5945615181559154e-07 -1.4464071481453100e-07  -4.8794262341702930e-09 -2.6297725132543829e-07 1.4660364514581597e-07  2.5928484529569579e-08 -2.0050448349064252e-07 1.1177654340690878e-07  -7.2526184316907017e-09 2.5154803490821235e-07 -1.4023212525396005e-07  1.0056095404204534e-08 -7.7681416423360798e-08 4.3305566357378485e-08  4.1299068548934313e-08 1.0340256426585312e-07 -5.7644502565884942e-08  4.5382246322268251e-08 9.7969608202342159e-08 -5.4615757080055383e-08  3.8706313418766452e-08 -1.1662946887957736e-07 6.5018191432867160e-08  -2.2901739931679271e-08 2.2300574279155837e-07 -1.2432046732906980e-07  3.5522013827627548e-08 -1.0310358344652483e-07 5.7477827776634783e-08  -4.5297438313014414e-08 7.2516804462928960e-08 -4.0426416410579429e-08  1.3385335490244601e-08 1.8000541172045993e-07 -1.0034879203880457e-07  -1.5284172994194418e-08 -2.5194592504249418e-07 1.4045393966474755e-07  -2.0193156097664657e-08 -4.0828203915037393e-08 2.2760765383823705e-08  -1.1364633426002605e-08 -1.2690500542121800e-07 7.0746561872671259e-08  </DataArray> 
</PointData> 
</Piece>
</UnstructuredGrid>
</VTKFile>