<?xml version="1.0"?>
<VTKFile type="UnstructuredGrid"  version="0.1"  >
<UnstructuredGrid>
<Piece  NumberOfPoints="201" NumberOfCells="657">
<Points>
<DataArray  type="Float64"  NumberOfComponents="3"  format="ascii">-143.1748938178364 -102.1113573783701 269.9074861719367  83.02786733224049 117.22681581737 -266.5673873189368  4985.148730900357 -563.0824704906308 -759.4811632744619  8303.248023129725 -976.0541358470691 -1117.295819372708  10082.0549180351 -1140.829075408512 -1264.264490270647  10984.26460536203 -1187.912410778978 -1149.409274400458  11270.40889992543 -1199.459816473395 -895.9438394051069  10997.32373470138 -1206.841498378589 -647.4680270167925  10086.96228108445 -1199.227420063575 -486.8593249492528  8250.655144191029 -1109.068366885914 -391.4630053587601  4830.867541769072 -749.0060388557721 -163.3109009090678  6354.081904037853 -2870.265416203374 -424.7945662273714  5449.100252320311 856.1463013306542 -595.2702491342055  11094.83207280977 -2912.978606908055 -727.6755438110339  9201.947150901451 -3092.098669096229 -11.74384694670533  10017.90423160057 593.3721125858989 -862.2270630470415  9981.007733978127 614.5260010976687 -1475.792899695993  6006.360632697058 1168.63788957663 -1321.539523004513  2828.319984288036 -2449.352527527278 506.7302102052679  9244.601088288226 -2879.223052611108 -829.3372947962401  7142.638624838941 -4384.183330425528 -239.4791371426667  9213.254002479232 -4408.30009429318 -478.1183678221093  6917.522813182311 -5518.50725876467 24.54955723063413  8696.579987104504 -5352.86065735122 -114.3546032659242  6131.48928003832 -6130.979449999712 347.9375521756915  7905.114986771508 -5809.435913748836 261.2638147676955  4921.687979855573 -6286.50785369619 709.5881655743897  6528.237878679624 -5870.136472613696 650.4179207868928  3239.566786630464 -5995.773855700141 1046.927993869122  4837.405083947121 -5411.695370925087 907.3062343025398  1014.282163910841 -5209.635674260213 1295.070061300947  9000.022068206401 -5092.297971434253 207.9079322701898  8592.793071765465 705.5984275129314 -780.9504027127614  7899.251014033125 2329.378063167861 -1033.068842966031  9167.743717065779 2044.734740610233 -1150.754749607994  2509.88454188897 -4413.034550876387 1016.237048346808  6306.100336831243 -4376.47907035708 568.7504848698311  5704.325025354319 2525.206994240427 -916.3925707690038  4737.185855630415 3915.754900810441 -1066.022964013999  11106.11449352597 -2876.474875392224 -478.1510429369764  10134.50115283087 -4532.550388783447 -218.4765962491028  10596.37557153807 -2938.237308194677 -879.7464055747296  1934.008215929295 1803.73194911386 -941.0813055558356  8522.242029524734 746.1587621502089 -1502.224712785347  7824.78569290781 2352.915137049304 -1643.775798982557  3798.376794310953 -5942.340158477758 519.4576629626069  -535.1941473468199 -5522.789204502956 1359.013744110245  3950.616667292939 -4174.23867346198 181.4358790006732  9084.935000670359 2100.168588720955 -1492.251850375467  6497.137433938124 3639.365964919832 -1571.15432622915  4636.465619979062 3858.552144112219 -1619.990023917016  3039.502266259543 4918.59786427298 -1476.963274327089  768.0847685065369 5053.598263447159 -1420.747308270187  -781.5494988065872 5829.431001848116 -1215.866162949538  -3200.175087563758 5727.331206506983 -1085.369168100244  -4345.276691317632 6232.642318750814 -850.726469564049  -6543.459591147471 5824.709316491745 -669.7967867197463  -1964.262342348157 6155.614313114121 -937.3642983819174  -3032.628171473746 -4444.493442740953 1565.102945996192  -4205.522586831846 -4624.388765242305 1522.109671685478  -7255.11127494724 6015.691719007303 -408.7114164269685  -8997.847594232857 5181.035130664539 -214.6508912563711  -9352.420236426913 5168.21198497815 55.91228849192582  -10572.84325757949 3919.448140221039 231.7261752646407  -10666.96845729618 3782.777976037796 531.857143569374  -9905.444942596425 3812.128390315953 -16.07724508250147  -9242.318762555684 4909.62131447933 313.1728448200668  -10984.92671950777 2366.193688245411 436.4150592516314  -10287.33208652015 3345.559622491516 782.5323311266935  -10073.52776129427 1968.568626110404 324.6517215297188  -10468.68050878612 340.5409045429915 713.8480819912539  -8554.727458948126 4349.247129935867 432.6072402024383  -1486.055408778678 -2791.660152908853 1122.127741994428  -6536.134854727098 -3325.942128229659 1646.45935116073  -9100.525077185574 -42.99627969986799 678.2422929993243  -8957.521386559163 -1569.283700759354 977.0821091627413  -11080.96033091847 1934.121557631888 977.4140261095262  -5368.460397833901 5065.083239904305 -806.3259968709308  -9260.401017921185 2542.181472004203 907.0224641067695  1820.068661837609 4105.706353478115 -830.9949628583361  -10222.53252902386 -994.2230227021953 1071.644321019085  -8218.129881963485 1586.272144967695 278.4042658743419  -7069.17586861888 3516.080949840744 386.6745490640727  -6822.681456967957 -2048.351291749117 914.3395634936439  -6384.405244044221 -3326.076539467884 1100.076693380335  -7037.710025043989 5565.039617241659 -24.61854840852521  -1745.773769827063 -5478.424728702073 1276.949518324445  -7205.752015920805 1302.893378419128 889.8229319900582  -9154.53671548676 432.0941099972399 1334.328810447497  -3520.538375181136 -3794.834531498702 941.09181237531  -3042.461226604548 -4755.57217242741 1064.481668137191  -3571.065907613284 -2378.882177457833 717.0092732968543  4922.679613813784 4486.249504265069 -1383.314388870207  -7146.933204046573 -3457.627764628249 1515.59103405259  -9096.522744459849 -1951.050738777943 1541.645081836931  969.0287821677172 5168.59008901654 -916.6376426688423  -2150.623674903139 5230.796057442773 -575.9898381593334  -1434.533574700383 4121.763335115264 -482.4436992324315  -4777.348828086654 2350.400735645301 310.6181253470392  -5305.058898881201 -2913.609009754938 1592.201924209918  2216.961587065598 4018.277835888588 -1467.11128734754  -5651.215280366901 -4130.175781042742 1247.608945089207  -1919.884011792341 3811.388744544743 -952.8404381576613  -2963.136220458081 2102.407557558879 -402.6050907438925  -2718.750427378679 5994.39999192534 -673.9909840099367  -3205.080499014959 -820.8822822348318 861.9032289818966  342.4140853519131 -5167.439167644926 773.9518297946629  -6262.222560137724 -985.9363509682455 1312.178492349589  -8380.246599360911 -1592.835532207716 1603.983158760987  -10197.91740125337 -97.68148035117962 1419.421475377287  -10614.48192650782 -418.2664846823461 1249.186551182025  -11172.82464142313 992.0278439285462 842.4530888009715  -6107.454019538086 3815.566925380579 -470.0565883076181  -8166.576249601038 4194.912834155429 -322.5645101723585  265.4992426857326 -5692.984651516063 903.2585387747996  -1579.258573823356 4971.730567592597 -1212.825940914439  3640.58988297058 4780.99969898548 -1161.729426649452  10538.69563932632 -2884.05283249234 -241.5652555802221  1429.634342040637 -2164.586700342068 110.9195044543985  3161.73628982685 -6225.283707074778 739.1171726218045  -5205.753913517067 4865.813059405595 -123.7172130466288  10634.19312024399 433.9856619772852 -1262.718518133498  6707.687587823926 3569.06275065874 -1219.125136935417  7983.86599307326 3042.283172843869 -1381.824659704319  -8270.220648777567 -2688.047967912531 1196.373732629159  -5122.232581668688 6310.766239746993 -569.3743127031194  -7470.621897837233 5906.60294692851 -157.0566015803542  338.9244695236887 -4106.440721952672 619.1805304854086  -3446.663227170723 -253.3562981283441 252.0430471879512  -6837.476456422991 -297.941858751316 589.5807996253507  1448.31100691878 5533.491910558413 -1242.581057178003  1610.316610841259 -6098.100148942822 1059.278661289294  7648.762749154514 -5012.053739707933 504.1617977843035  10643.83823677931 450.5160352504374 -1027.675960208175  6714.131304177498 -2822.378225654468 168.2983369725233  -9143.086105113411 -2232.251231773278 1356.115681498083  -1482.112622844995 -4150.867384540499 1413.255400662315  5917.169346957374 2468.484231876833 -1572.073687907591  -10431.85664308326 1691.055747178065 1150.830741970807  4131.118907863353 -5295.111986133198 342.3179381207809  2713.140026384577 2878.600722186151 -730.8134590844081  360.9901810823675 5685.808415578805 -1007.39439107733  -8329.511459805455 5033.401693350983 -397.0718407642538  10199.76013714468 -4197.083686708522 -504.5549723512216  -877.6303643908179 1918.569085534337 -126.034720949303  9617.430596170474 -4152.869788152167 92.02392202458111  -11165.07983471163 2732.938827869958 600.1658379381097  -5011.052299281312 -4497.166917392739 1379.926871128271  -2550.831745164173 -5220.922738620406 1175.933945672276  9793.784713637504 1642.183995224892 -1279.412800478474  -4238.483333766121 3905.984285310425 -87.02932855047867  3389.395201534233 2677.083458530918 -1344.006703717629  -5332.633024278114 1359.975662295518 66.26413704529763  -5582.543243039937 6069.477307890802 -340.6426524858606  10306.74395118843 -4009.074753572282 -114.5445554793444  497.1447798532187 -5940.187246280608 1016.903226506691  -8861.762744382038 2911.552365720925 21.92531486648718  -6714.585737613053 2524.078691649559 -94.42587745196694  -4755.568057325811 5657.643392379937 -320.7462168081988  -7347.153423112393 -3417.638058647128 1356.229613530889  -21.85707155340359 8.537306832149447 1.343679395348206  -4095.048591912096 -2196.147151197442 1028.417296061384  6865.390893062349 194.9034460088962 -885.455070630354  -3722.584337230586 3393.611819222661 -272.8360261896855  5888.80432263808 -2870.188200781329 21.70809941928775  -3869.750177527985 901.2695062707998 154.5262755229907  -7410.133144312914 1504.50036112225 552.3606796572694  607.037846427338 3192.596488139666 -895.924835623802  5605.807978059935 -2359.536612153671 -226.3958554552625  -4158.523541701167 183.9598703495816 597.4437738659736  3218.616381699523 1995.263642420101 -777.1521681514939  -680.2767811173471 -2687.319082922509 623.2416267838986  2208.616346011833 -4191.60673492946 703.1176627500332  2971.752930346887 774.9200320911384 -692.6374923336244  -
[...]
<PointData  Vectors="Tidal Force"> 
<DataArray  type="Float64"  Name="Tidal Force"  NumberOfComponents="3" format="ascii">-3.2040789014514496e-13 -9.1360937192157629e-13 2.0075843743553399e-13  3.1025222037021396e-13 8.8465154856611932e-13 -1.9439518466356618e-13  2.0471200188298133e-12 5.8371472494137346e-12 -1.2826669656515059e-12  3.3027262209229934e-12 9.4173761668587267e-12 -2.0693939686987863e-12  4.0466387298642953e-12 1.1538564380265661e-11 -2.5355083106900184e-12  4.4161879587064702e-12 1.2592295106758258e-11 -2.7670573081390321e-12  4.4663184860179426e-12 1.2735237028539224e-11 -2.7984676655004294e-12  4.2274740460972822e-12 1.2054197249387640e-11 -2.6488145576231068e-12  3.7021954959737419e-12 1.0556420755666310e-11 -2.3196900129889718e-12  2.8319422655275786e-12 8.0749852737857754e-12 -1.7744141814903976e-12  1.4853733817872016e-12 4.2353858445523543e-12 -9.3069255879075917e-13  -8.3044517726421508e-13 -2.3679270085139563e-12 5.2033324175604753e-13  4.3875364014270037e-12 1.2510598207100730e-11 -2.7491050602498968e-12  1.7228445951607543e-12 4.9125100127536593e-12 -1.0794852421145007e-12  2.0841234313519938e-13 5.9426585851615205e-13 -1.3058522476193442e-13  6.5043961571604516e-12 1.8546600975339677e-11 -4.0754689542186062e-12  6.7209663969865133e-12 1.9164128217551981e-11 -4.2111656841674949e-12  5.3981613150189524e-12 1.5392288767644583e-11 -3.3823337812849215e-12  -2.3751543592337490e-12 -6.7725026414716087e-12 1.4882039191106034e-12  8.2535570486363810e-13 2.3534149136925814e-12 -5.1714432363655859e-13  -2.7654649114660826e-12 -7.8854320962294485e-12 1.7327613691324094e-12  -1.6231576578512884e-12 -4.6282632042782825e-12 1.0170242529112808e-12  -4.6902009632487985e-12 -1.3373614346009373e-11 2.9387460346682497e-12  -3.4485714144020179e-12 -9.8332383840837526e-12 2.1607764035603885e-12  -6.1424229493535847e-12 -1.7514472475360910e-11 3.8486668752813014e-12  -4.6850339074274798e-12 -1.3358881030230356e-11 2.9355085049920615e-12  -7.1405802072325356e-12 -2.0360612828011550e-11 4.4740837191547116e-12  -5.6374790138061297e-12 -1.6074677994637787e-11 3.5322834196581124e-12  -7.7057909440112077e-12 -2.1972251748631684e-11 4.8282286320220933e-12  -5.9266401812480368e-12 -1.6899190625868683e-11 3.7134635526329121e-12  -7.7796852730954938e-12 -2.2182953649738674e-11 4.8745287092005558e-12  -3.0001780342323110e-12 -8.5546918593865463e-12 1.8798259116154827e-12  5.8905832864588918e-12 1.6796378185804139e-11 -3.6908713316568074e-12  8.0646103857649743e-12 2.2995387616682266e-11 -5.0530546511795632e-12  8.3463429406709789e-12 2.3798718341218851e-11 -5.2295802276003838e-12  -5.6867483651473803e-12 -1.6215164363788918e-11 3.5631541887401451e-12  -3.4668694641836638e-12 -9.8854133469438305e-12 2.1722414392079713e-12  7.1568455713907792e-12 2.0406991801781384e-11 -4.4842751320167675e-12  8.7983943791286032e-12 2.5087695434068918e-11 -5.5128227544436715e-12  1.7010785664720070e-12 4.8504464730869402e-12 -1.0658472698824488e-12  -1.4084959701754426e-12 -4.0161779976239948e-12 8.8252336725719959e-13  1.4705316733995444e-12 4.1930662753552651e-12 -9.2139316799414007e-13  4.0708331196222199e-12 1.1607552135906603e-11 -2.5506678246467656e-12  6.1544949296208042e-12 1.7548894456370147e-11 -3.8562308335037476e-12  8.2638834019369420e-12 2.3563593646388083e-11 -5.1779134345622919e-12  -7.1526948583811610e-12 -2.0395156480547488e-11 4.4816744137333436e-12  -9.0977926789372174e-12 -2.5941398170660791e-11 5.7004171823249732e-12  -4.2825078455995539e-12 -1.2211120335691639e-11 2.6832971653679148e-12  8.4999193220267954e-12 2.4236625226872993e-11 -5.3258068040870926e-12  9.4824706748237940e-12 2.7038266983893762e-11 -5.9414454333303939e-12  8.8426091706086112e-12 2.5213769257829613e-11 -5.5405264806067308e-12  9.5520009364914251e-12 2.7236525206133333e-11 -5.9850111104445083e-12  8.5316315452544731e-12 2.4327049293309532e-11 -5.3456767778880228e-12  8.8152804106527690e-12 2.5135844175499901e-11 -5.5234030597593222e-12  7.3330685532607439e-12 2.0909473084971493e-11 -4.5946914219040699e-12  7.4120407172325006e-12 2.1134653897756215e-11 -4.6441731254685160e-12  5.5670643011420537e-12 1.5873897853481085e-11 -3.4881635707976232e-12  8.5884807968020743e-12 2.4489148950022378e-11 -5.3812968960596015e-12  -8.8598753608944095e-12 -2.5263001981953045e-11 5.5513449825502095e-12  -9.7407070907585390e-12 -2.7774600941408185e-11 6.1032489998047645e-12  5.3914891408352698e-12 1.5373263765287293e-11 -3.3781531874087621e-12  3.1379235185860266e-12 8.9474586086336543e-12 -1.9661332999576552e-12  2.8402281748626634e-12 8.0986116720620392e-12 -1.7796058957459070e-12  2.4310376971931295e-13 6.9318480972617970e-13 -1.5232188234012714e-13  -1.1364031552964417e-13 -3.2403339770745407e-13 7.1203777675629487e-14  5.1743098711563941e-13 1.4753999938557492e-12 -3.2420748567397810e-13  2.4215957948890110e-12 6.9049255067166557e-12 -1.5173027969509392e-12  -2.3954152695601307e-12 -6.8302744945600547e-12 1.5008988271426843e-12  -6.5741087398668247e-13 -1.8745379066829713e-12 4.1191488684909641e-13  -2.4763115023662471e-12 -7.0609415870943185e-12 1.5515860973132790e-12  -5.2804439907293930e-12 -1.5056630208612993e-11 3.3085754663047318e-12  1.8985438889407236e-12 5.4134980544796770e-12 -1.1895734039940805e-12  -5.3889327671218694e-12 -1.5365974534732956e-11 3.3765514366155135e-12  -9.0537020209303966e-12 -2.5815678300432329e-11 5.6727912346526335e-12  -5.1228255131529990e-12 -1.4607197711065654e-11 3.2098162277139763e-12  -7.4571128055116917e-12 -2.1263172213098859e-11 4.6724140093331049e-12  -3.2805451209332851e-12 -9.3541290950686167e-12 2.0554959246383920e-12  5.0863031178394081e-12 1.4503057945255256e-11 -3.1869323373976753e-12  -1.3698749433308221e-12 -3.9060542049093528e-12 8.5832453433217575e-13  7.4588894658466492e-12 2.1268238173028886e-11 -4.6735272139815243e-12  -7.2896102001329557e-12 -2.0785556165547818e-11 4.5674616584188312e-12  -2.0545719063919373e-12 -5.8583955223953359e-12 1.2873361056724955e-12  1.4411973820175617e-12 4.1094226312704810e-12 -9.0301313840604934e-13  -7.0280105429091089e-12 -2.0039632279519571e-11 4.4035507809615369e-12  -8.7915709172744732e-12 -2.5068239050844228e-11 5.5085473680319465e-12  4.6968576207483321e-12 1.3392595104175133e-11 -2.9429169062330688e-12  -9.6461057466786141e-12 -2.7504855166706304e-11 6.0439744981431971e-12  -2.1494797049837887e-12 -6.1290151198799096e-12 1.3468026229830245e-12  -4.6504898893427737e-12 -1.3260382398839849e-11 2.9138642093715975e-12  -7.9277532315787337e-12 -2.2605153847400170e-11 4.9673038651615997e-12  -9.1695146722407751e-12 -2.6145905884953782e-11 5.7453561359158492e-12  -5.7362853792901881e-12 -1.6356413945243917e-11 3.5941926676927923e-12  9.8661711196090374e-12 2.8132348413060422e-11 -6.1818611787214015e-12  -9.5338502952091843e-12 -2.7184770563092776e-11 5.9736384367546540e-12  -8.2967322222784688e-12 -2.3657258599854093e-11 5.1984955676688715e-12  8.6447171393258266e-12 2.4649500961169841e-11 -5.4165329829332520e-12  6.9691286057381057e-12 1.9871736633716479e-11 -4.3666570400044313e-12  5.6391548156941230e-12 1.6079456367322877e-11 -3.5333334292828215e-12  9.1854503068608731e-13 2.6191344669653638e-12 -5.7553409496619321e-13  -7.7577252858548977e-12 -2.2120337057677851e-11 4.8607692080767551e-12  7.7488924134035954e-12 2.2095151051650207e-11 -4.8552347823465146e-12  -9.6687562263638035e-12 -2.7569440625290151e-11 6.0581666421216244e-12  5.0680399805970953e-12 1.4450982531826114e-11 -3.1754891769506072e-12  1.7436485894323189e-12 4.9718304125456061e-12 -1.0925204310434782e-12  7.8561708884325130e-12 2.2401044330830941e-11 -4.9224524123727831e-12  -3.2313533530127726e-12 -9.2138639468751289e-12 2.0246737671130581e-12  -7.8991676202068987e-12 -2.2523644985556639e-11 4.9493929370956600e-12  -5.2542906195977721e-12 -1.4982056623791570e-11 3.2921885105413218e-12  -7.3948210769991421e-12 -2.1085553906207367e-11 4.6333837904590560e-12  -6.0348806906941420e-12 -1.7207827044924189e-11 3.7812839659622546e-12  -6.6847892478952181e-12 -1.9060972885003089e-11 4.1884981152785068e-12  -4.7107528114029569e-12 -1.3432215777688978e-11 2.9516232360379540e-12  2.6902865767685399e-12 7.6710689882734670e-12 -1.6856567706905696e-12  2.1222168909355776e-12 6.0512780753641902e-12 -1.3297205219588115e-12  -8.7786998277736263e-12 -2.5031538493971265e-11 5.5004827107754964e-12  7.0921526360063159e-12 2.0222526706250843e-11 -4.4437403854628682e-12  9.5579554640332641e-12 2.7253503914632434e-11 -5.9887420474211984e-12  1.3096197796127144e-12 3.7342429481559855e-12 -8.2057036882148975e-13  -2.5549966076812597e-12 -7.2853038823357582e-12 1.6008879381179377e-12  -7.9921901416747557e-12 -2.2788888913770490e-11 5.0076781935783898e-12  4.6439069360929424e-12 1.3241611800583848e-11 -2.9097395187856435e-12  6.7235576832392463e-12 1.9171516997537254e-11 -4.2127893101612606e-12  9.3707078780760696e-12 2.6719587133361264e-11 -5.8714180553268930e-12  9.3049054997750158e-12 2.6531958578136428e-11 -5.8301881635121912e-12  -8.8589404806744821e-12 -2.5260336269413448e-11 5.5507592132919814e-12  7.0241740427534902e-12 2.0028692903164123e-11 -4.4011469394827446e-12  5.0281776190206287e-12 1.4337319203789184e-11 -3.1505125591183911e-12  -6.2431805378692687e-12 -1.7801772133051757e-11 3.9117987039669745e-12  -2.2975011134145848e-12 -6.5510825849668194e-12 1.4395486120100488e-12  -4.2777131901977944e-12 -1.2197448880509308e-11 2.6802929711638843e-12  9.5600967664456994e-12 2.7259609613063378e-11 -5.9900837263861043e-12  -8.7298920977857789e-12 -2.4892368389518111e-11 5.4699011804558259e-12  -3.6947242125564327e-12 -1.0535117177445299e-11 2.3150087200788072e-12  6.6755102707746567e-12 1.9034514858469003e-11 -4.1826841730972444e-12  -7.6408031916279301e-13 -2.1786946013462099e-12 4.7875091615527364e-13  -8.6854755894118476e-12 -2.4765719391267548e-11 5.4420710642453469e-12  -7.5415313256194275e-12 -2.1503882737110113e-11 4.7253082441778590e-12  7.4021177977197905e-12 2.1106359737273683e-11 -4.6379557073666465e-12  -3.3615926414098464e-12 -9.5852275684702828e-12 2.1062779873445509e-12  -5.9371837681266733e-12 -1.6929254554012357e-11 3.7200698631883781e-12  6.0419213861263420e-12 1.7227902846830287e-11 -3.7856954647327367e-12  9.1351258209975478e-12 2.6047849695478562e-11 -5.7238090634087850e-12  3.3299580016029085e-12 9.4950247229913881e-12 -2.0864566251003199e-12  -7.7077964754373470e-13 -2.1977970310386754e-12 4.8294852407627749e-13  2.4806484155856408e-12 7.0733078386265576e-12 -1.5543034833327828e-12  -1.2115116649153184e-12 -3.4544979861686426e-12 7.5909862479710516e-13  -1.9903018006505096e-12 -5.6751360810839483e-12 1.2470662921026088e-12  -9.9284977606609140e-12 -2.8310066269382853e-11 6.2209132727959646e-12  -9.6500974136757124e-12 -2.7516236984977031e-11 6.0464755627353880e-12  8.1120953184291941e-12 2.3130785903807609e-11 -5.0828073544575062e-12  3.6921096512774774e-12 1.0527662031172733e-11 -2.3133705106180330e-12  6.2998940184305740e-12 1.7963484653088727e-11 -3.9473337519143274e-12  -7.9449689926410534e-13 -2.2654242777901132e-12 4.9780907695932243e-13  6.3383559992626753e-12 1.8073154942840202e-11 -3.9714329311481179e-12  -5.5907776736913859e-13 -1.5941514039184638e-12 3.5030216931028327e-13  -9.0677756534527257e-12 -2.5855807782148753e-11 5.6816093710379269e-12  -3.0451880557749097e-13 -8.6830331979630839e-13 1.9080279062347128e-13  2.8763665322435872e-13 8.2016563941321073e-13 -1.8022491588565459e-13  6.1473184632023083e-12 1.7528431517788179e-11 -3.8517342645090414e-12  -9.5266001245409902e-12 -2.7164097464601045e-11 5.9690956867810839e-12  8.6893431229357582e-16 2.4776747256006038e-15 -5.4444943503468178e-16  -5.8414419477618598e-12 -1.6656256831233120e-11 3.6600807716433293e-12  4.2349608461987412e-12 1.2075545071800181e-11 -2.6535055728446108e-12  3.2521224347450038e-12 9.2730847972361386e-12 -2.0376870808415207e-12  -1.2259189061468289e-12 -3.4955787180029313e-12 7.6812579087620701e-13  -7.4160440217427060e-13 -2.1146068899170583e-12 4.6466814817942103e-13  -1.8404920943716454e-12 -5.2479694729233699e-12 1.1531998066936607e-12  5.4539670695575922e-12 1.5551413002477127e-11 -3.4173000740188899e-12  -5.2051104891903697e-13 -1.4841824658741728e-12 3.2613736447494930e-13  -2.1282916727795582e-12 -6.0685996763476307e-12 1.3335268068483842e-12  4.9883540491545295e-12 1.4223766486231083e-11 -3.1255602470645250e-12  -4.6371455409754084e-12 -1.3222332394125269e-11 2.9055030216192791e-12  -5.4073006419821825e-12 -1.5418348596454917e-11 3.3880602226641257e-12  2.9815657715966653e-12 8.5016209516480120e-12 -1.8681639991632667e-12  -5.2239205895489031e-12 -1.4895459679922250e-11 3.2731595166712932e-12  2.5871743314333828e-13 7.3770552745181558e-13 -1.6210495812590658e-13  2.8113399881499386e-12 8.0162400484837014e-12 -1.7615053826088388e-12  -4.7593239119575426e-12 -1.3570711158221324e-11 2.9820565011096918e-12  2.9000915423060321e-12 8.2693057629793096e-12 -1.8171145728952603e-12  2.3937472260142099e-12 6.8255182439707322e-12 -1.4998536786736444e-12  6.6171365050095046e-12 1.8868068209938476e-11 -4.1461088378365201e-12  6.0726715749368393e-12 1.7315583773392050e-11 -3.8049626552305937e-12  7.2306002503177323e-12 2.0617295505164617e-11 -4.5304877083931705e-12  -2.5637829300801211e-13 -7.3103571557888179e-13 1.6063931969141587e-13  1.1397353632172469e-12 3.2498354172053034e-12 -7.1412564311653941e-13  3.7478610974216001e-12 1.0686631411334927e-11 -2.3483027752623120e-12  -5.2499265521811186e-12 -1.4969612944924154e-11 3.2894541104769741e-12  3.4698874592504690e-12 9.8940188421961414e-12 -2.1741324287635829e-12  -2.9239562025258087e-12 -8.3373533295502690e-12 1.8320674877360345e-12  -7.7474416034357434e-13 -2.2091014219742282e-12 4.8543257462362328e-13  -1.2628408560772317e-12 -3.6008577717451925e-12 7.9126003070951100e-13  -7.2017702511705656e-12 -2.0535089797304513e-11 4.5124236539236278e-12  -7.4873393062321874e-12 -2.1349359898196538e-11 4.6913530718232399e-12  -4.8324268901502795e-12 -1.3779156605560357e-11 3.0278607404098195e-12  2.5496200766239444e-12 7.2699732699711064e-12 -1.5975191572386605e-12  -4.7149306786098319e-12 -1.3444128526258052e-11 2.9542409683662230e-12  5.9467963539564194e-12 1.6956663830664311e-11 -3.7260928350634490e-12  -4.3896272746159606e-12 -1.2516560111909207e-11 2.7504151417029486e-12  6.1317668665148770e-12 1.7484087776828660e-11 -3.8419900779686219e-12  3.6590164431606181e-12 1.0433300231690149e-11 -2.2926352511078508e-12  3.0750693102731124e-12 8.7682364497992493e-12 -1.9267506472975343e-12  </DataArray> 
</PointData> 
</Piece>
</UnstructuredGrid>
</VTKFile>