<?xml version="1.0"?>
<VTKFile type="UnstructuredGrid"  version="0.1"  >
<UnstructuredGrid>
<Piece  NumberOfPoints="201" NumberOfCells="657">
<Points>
<DataArray  type="Float64"  NumberOfComponents="3"  format="ascii">3.390924024604054 -4.109760715353641 8469.029559360179  -10.8522744058358 0.4942042064304688 -8467.974020075329  3113.650241236561 -0.1912212601534436 -8058.029377285367  5899.431823341309 -2.575703048660583 -6867.699838152075  8117.409357763713 -0.5640403255512253 -4986.26885236229  9557.646352759235 -0.3286280937908668 -2621.790979276833  10055.62825940161 0.3260780021802816 18.06474427001115  9559.426542851636 -3.37759686672551 2648.66458354675  8150.469990652808 0.9178084550588197 5008.804120935333  5933.887031716477 2.11685419630792 6863.019207469103  3106.861026399013 1.794336092198807 8053.845404224396  3994.442876346854 -310.7030679643028 -7450.501478321848  3956.249698113568 242.6624284849482 7604.698685765481  9664.566207717111 -291.4676919602452 -1265.376209383802  7009.208376693431 -304.5779862854745 5725.5570091572  8800.979095668219 292.4784820358754 3626.505216762658  8757.682765415781 290.8271693373149 -3656.944988977178  4442.124151646284 279.2745229535189 -7340.045231621936  1529.779516813157 -278.5572045774708 8122.453149402599  6908.096918624653 -282.1687083061333 -5825.735187014117  4966.521167920736 -496.6366641298799 -6182.040255226711  7374.240002459821 -491.679671622095 -4253.421266548437  5320.516881306311 -587.5223907346484 -4258.376813044617  7419.07714724179 -590.086664462847 -2067.97841387284  4962.152837645575 -589.1097999164909 -1852.328967251766  6823.239696903965 -606.6010910413754 469.0648492331193  3809.365585733123 -575.4878619812896 868.5931286186328  5256.507689623116 -598.2898061057745 3162.152801610154  1961.217626467844 -574.3053319248169 3466.663214683598  3283.225920289965 -581.7086880712335 5428.1096278568  -119.6546590668773 -586.0687571720852 5525.765065170804  7643.140190747025 -569.8668195706765 2569.414304442738  6947.120678636604 284.6763443904116 5836.494509021582  7257.606539363162 497.5124733925186 4421.226700615877  8727.968297151789 490.5452056276831 2003.169322963213  1166.513272742975 -527.0810499129752 7050.053513310279  4286.524068033364 -481.8749099747388 6576.552842970165  4962.19899629266 472.8539445965261 6351.226203649071  5038.86061315222 584.5482987782134 4650.361494105857  9684.205282847 -285.6628228057552 1283.064894149169  8855.93030547239 -518.9429115940768 161.6887012209995  8823.469413381566 -292.815444326874 -3558.771946225194  1535.48655709483 274.7418794259342 -8125.175751143017  6832.893427102469 275.3457550372144 -5903.977671545405  7165.450097720601 495.6067036839348 -4485.382086149174  2406.332370457084 -579.3651238680301 -3858.300613944998  -1721.293767904367 -571.324431382222 3290.948370913011  2138.665212958396 -488.7013427999163 -7180.702900882164  8682.684840626947 498.0464072765106 -2048.001428117928  6838.11642053687 594.3285141199186 -2568.333637983345  4817.941838086041 584.1193763969454 -4968.447947292499  4041.175890279995 584.6282624566153 -2898.618665396282  1740.121050886685 585.1667347534205 -4981.435452727255  529.0369387050395 561.9220417993629 -2710.859887551775  -1819.295952848253 578.539626175962 -4644.552621255842  -3099.694270145734 572.8961689892199 -2036.719511134045  -5169.352411932965 596.4940462518819 -3520.87390957276  -611.0050050530157 538.9606636889996 189.782466447092  -3561.691885521885 -589.2142523985552 5050.66957955012  -5058.592432205803 -599.9014625915471 2561.274211188346  -6129.458882911436 603.6634320528268 -963.5213170287943  -7653.648720036063 574.7050087093162 -2336.255781642881  -8140.86366231153 577.9855718763963 196.1601861007186  -9161.167698843305 441.2583878635956 -1417.285395839978  -9253.921973112627 421.7599046859984 1298.861638621888  -8126.209272261044 418.7709074681916 -4004.414500416514  -7744.459726088242 554.1554698037168 2889.347569475337  -9473.49255294598 196.3547052711693 -2524.241725493165  -8482.1973542902 355.6743959133328 3819.672868243161  -8045.736628842331 125.2046130977771 -5043.727316452458  -9036.151866610981 -143.9095463987429 -3605.843019574394  -6468.1776529292 481.7223675477243 5274.520459282074  -1432.598723795987 -404.4178920762 7781.654013754532  -6503.352335024436 -567.7037591935704 4026.976586529146  -7253.381325848227 -190.0787367119004 -5763.97919219704  -8009.496240664191 -418.6580461433275 -4155.859969114785  -9649.504671080449 128.2057982801229 2159.125321993191  -3637.648922524182 557.7090692235085 -6009.704284991421  -6919.558571988401 226.9618308637772 5952.235201912982  2329.488419111045 560.8577778631362 6365.566263417953  -9447.777450480426 -357.3795435971787 -1479.075686999872  -5868.693495858243 77.95007010390808 -6906.005159042666  -4659.627812434076 384.552481089355 6949.854692097236  -5806.909885133497 -436.6759909256194 -6109.365336033081  -6342.488351557235 -566.927790891576 -4243.789249763227  -5443.526686264887 589.8939517620581 4128.12182579329  -3046.254301843574 -560.107989519887 625.0481825399158  -4802.153037961449 72.4167859094434 7448.701994556758  -7102.282740533032 -102.9346667582634 5974.586283426343  -3671.067103243348 -554.7725666012873 -6030.122185048768  -3884.089215581931 -594.6679950267743 -3901.516638515727  -3044.97617332934 -408.8223747086485 -7459.790253116973  5844.909682492069 595.0520870857988 -261.556366480478  -7460.344090874633 -588.7901649836788 1604.442017758686  -8531.009563110445 -479.260999647443 2716.062145016673  2064.931647376092 586.8159710978688 4399.584726224477  -727.7364382976779 574.6215457358966 5738.100364701388  -238.7725547009431 522.3956138400281 7154.26919355777  -2763.92591436933 255.4870378442416 7936.057357117706  -4748.388783905793 -498.3670598751879 6256.424113158141  2544.855045384122 547.60489656988 -6421.993983742588  -6302.134725644456 -599.2858790107296 -2036.632474412927  -790.4977033710865 468.1924179546664 -7520.530785103027  -1698.894815146049 220.5062542407406 -8199.779894812193  -1315.724156961474 570.0293832751232 3297.97483324004  -2153.124265694499 -162.7173928444997 8198.571778248741  -822.9528403671355 -585.6871543035733 -5314.117923904029  -4625.153967094968 -255.0224337642149 7314.985902109256  -7244.237781579695 -400.5861084413085 5103.412306778152  -8832.853289485207 -210.7959369662355 3790.723205301742  -9692.93270490937 -268.5554513764246 1196.188556943273  -9990.026158806266 -36.02106353701802 -750.0597510939592  -3987.674398609614 416.5113806150214 -7114.418412881519  -6075.752663696483 460.7874616797465 -5782.147022116785  -1020.533795741851 -570.3353431739638 -3184.758847346375  -378.2112070882357 579.617123862606 -6153.2378692746  4623.258804353487 596.0411627839775 2488.848134015271  8760.013300744831 -278.572462903454 3761.176245638305  505.694215715375 -284.0536428372274 -8189.29210957996  1914.99733189233 -553.6561896314939 -1518.391815393315  -3275.419946353914 547.9922611769294 6330.679456396178  9695.579221473643 275.8327392700649 -1291.581302058789  7027.560402274767 591.5622273489798 2356.829492795472  8134.327129305237 578.4783310646159 -90.66973181549766  -8120.138775013927 -547.1836206490191 -2264.667184887879  -3944.509174157318 578.1751237275811 754.4931187553592  -6272.401348774955 600.0507904605799 1710.913846806434  -601.4324398892924 -532.7427462070834 -7028.518175259371  -2389.00264186479 -117.8915084703749 -8203.845592199606  -4977.460445074155 -189.2879533389797 -7279.821201695786  2804.412049587364 559.6841292119574 -501.5645795190546  332.4274490102435 -545.3398840372693 1113.092056172338  5933.530600516509 -553.4719918567395 4869.433902842061  9714.502840207177 273.8647355154191 1167.354908302273  4461.229719670089 -272.7560278750829 7339.207488599901  -8868.579085355996 -516.4536210765755 208.3161909276578  -1937.946988906138 -557.5241338802974 6553.782861290721  5068.903970983349 466.4553409264309 -6349.586206757193  -8603.920604048806 88.98619332516269 4344.553747461572  2481.101874012088 -576.4712746807189 -5755.149986579739  2543.935084920709 452.2874523054002 7345.55541030997  1726.13308216179 556.6093188598651 2078.281321770209  -6677.286821348591 552.5212839546936 -4215.859083671859  8715.090518855201 -479.9918153919117 -2275.71153775332  -158.1933964066534 261.5273599236203 8240.77383818514  7887.926947023829 -461.0738315517528 3983.24769689353  -9821.572246992195 260.3858858479696 -199.8236420160158  -5934.683629531773 -603.4136521196091 84.20626643465695  -3755.610186776848 -578.3260499323259 -1611.92977864594  9289.990891670959 446.9097741696724 -49.73508979834129  -2339.923397922411 465.0542020931065 7347.504137249634  2895.899534483595 428.3533005028784 -7390.181069262111  -3422.103335036072 76.34082469965144 -7976.74917165828  -4234.413537774469 591.8006922277174 3028.681071029407  8814.714891141271 -453.7403081532818 2412.048774163267  -839.431247623113 -548.9080424824028 -1003.259259458535  -6523.67332847564 275.1012954227771 -6202.950181142598  -4457.543583880542 231.6546460203977 -7455.203371834171  -3152.026752904681 595.2551361901708 4873.975847496473  -7667.252338322478 -601.09913651891 -517.8082599663661  -9.40276942725818 -0.9501622006865652 1.824172092172762  -3818.464049343037 -236.4262183542379 269.3540440601288  5602.729633813265 104.1806584000449 -37.10527668450214  -2320.63538393724 242.8897825888103 2158.067889290501  4240.292941944396 -187.300269658031 1937.284426647738  -2723.484178445247 28.79313431466805 -4237.302040868388  -5742.342239265508 52.21265989260804 -1.164004002769104  1141.996356189525 265.678721848348 -1896.474545591469  3922.539763873652 -150.821260243734 -2869.993626956829  -3022.125817205992 -29.8405893025734 4105.109441358568  2938.807188341911 223.4557685322433 3352.741645182099  -1099.017708877931 -246.7864285642409 -3665.313521245856  1021.903055633902 -307.3200508226757 21.57098138912464  2281.87571205542 103.3262806818337 -4673.396993489658  -928.6755539890496 
[...]
<PointData  Vectors="Forcing"> 
<DataArray  type="Float64"  Name="Forcing"  NumberOfComponents="3" format="ascii">-3.8000264681143384e-06 -8.4116584332635727e-06 1.5333740105318212e-04  -2.0207056385928315e-06 -1.2080334971660227e-05 -1.5349055052636239e-04  6.1310028863895128e-05 2.7354672494112366e-06 -1.3787065900074130e-04  1.1480418813645010e-04 1.1306763548299494e-05 -1.2014923146097581e-04  1.5020296460391329e-04 1.8164649131971372e-06 -7.9932223085070443e-05  1.6520705947677068e-04 1.3415829711910256e-05 -3.8713667017318014e-05  1.8240938588035129e-04 -7.9348921577607223e-06 1.6673402043789793e-06  1.8045173210738875e-04 -1.5380934980649620e-05 4.6416971486612643e-05  1.4054766308626201e-04 7.0896016176822928e-06 7.2410034821833994e-05  1.1290939311679054e-04 -3.2912662156614549e-06 1.1544134626218994e-04  5.7402503379180451e-05 1.8407929754289405e-05 1.3103666176748376e-04  8.2865022108484572e-05 1.0952907108929889e-04 -1.4683770833576643e-04  8.2278178703076006e-05 -9.1169458726858495e-05 1.4381204136853484e-04  1.8998255388450239e-04 1.1476414771372023e-04 -2.2542397826884708e-05  1.4665802620034458e-04 1.1880892698476224e-04 1.0849666743052662e-04  1.8009642945539855e-04 -1.0638592563755577e-04 6.8165210142071342e-05  1.7495186786254681e-04 -1.2634786247600889e-04 -6.5311448358338736e-05  8.5901870773207192e-05 -1.2244488798652595e-04 -1.2629273432885422e-04  3.3985904029976056e-05 1.0762434997775496e-04 1.6084359534998286e-04  1.3787326622857925e-04 1.4271743071976541e-04 -1.0508694634272844e-04  1.1265286027796375e-04 1.4441471277188366e-04 -1.3507077838656445e-04  1.6505359845233800e-04 1.7478255116999596e-04 -9.2180503956081755e-05  1.2606854616418892e-04 1.4945979622670339e-04 -1.0055645032081359e-04  1.7371686874936084e-04 1.4052509578032468e-04 -4.7917117399696249e-05  1.1934958840907212e-04 2.4282385746915178e-04 -4.3983433167427087e-05  1.6285310488373927e-04 1.7240677250639157e-04 1.1069418950603127e-05  9.2000864166158256e-05 2.5809642169937597e-04 2.0817296659994785e-05  1.2523776869152874e-04 1.7876216135604168e-04 7.4613415552514151e-05  4.6886386542686942e-05 2.1360347119926841e-04 8.4164380194775391e-05  7.7653251784046259e-05 1.4147716524122350e-04 1.2726105961174074e-04  -3.1852725143568311e-06 1.6639248472511434e-04 1.3118487830577640e-04  1.7979001112056366e-04 1.6185364314940580e-04 5.9021568937306212e-05  1.3775437103637875e-04 -1.4806624033364779e-04 1.0271814810580682e-04  1.6237401437115765e-04 -1.5257861223636813e-04 9.4183673800409025e-05  1.9676144421369339e-04 -1.2234748503361638e-04 4.4591883892915403e-05  2.6874274832668644e-05 1.4488516674787444e-04 1.5703714814666294e-04  9.5726392613138220e-05 1.6052046652528131e-04 1.4017492882169633e-04  1.0815283158454949e-04 -1.6990300051234101e-04 1.3287913350277546e-04  1.1806478064953215e-04 -2.0201054166513161e-04 1.0866141560773179e-04  1.8320554416129475e-04 1.1191312243154335e-04 2.0713780573010562e-05  1.9932363167934225e-04 1.6910157793642198e-04 2.3801864680899245e-06  1.7507567576198376e-04 1.1660407437406406e-04 -6.2471318361015669e-05  3.2660566833081932e-05 -1.2181543276789200e-04 -1.4957063331788443e-04  1.3768658676692190e-04 -1.0571220204515019e-04 -1.0837033971916666e-04  1.6174358257898671e-04 -1.3721783313902332e-04 -9.8607433788560668e-05  5.7190890289866121e-05 1.9387490904746078e-04 -9.1543133301315191e-05  -4.1736683745894235e-05 2.2765483934307043e-04 7.9129628135269703e-05  4.8853277597389169e-05 1.7742371684213203e-04 -1.5633440363429848e-04  1.9381092411221754e-04 -1.4437765883029840e-04 -4.2697008990644927e-05  1.5980392057925120e-04 -1.5750426734539557e-04 -5.9236773083908738e-05  1.1321104228821823e-04 -2.0378423441137869e-04 -1.1268408089355364e-04  9.5493207888492596e-05 -2.2250805029661142e-04 -6.8142608598288152e-05  4.1034098502341551e-05 -2.0480416011390068e-04 -1.1666309529129257e-04  1.2576002026166787e-05 -1.9625811409095323e-04 -6.4633051468537321e-05  -4.3750806258281810e-05 -2.1367644308389858e-04 -1.0945178464667754e-04  -7.4550973953249399e-05 -1.8627773897911151e-04 -4.8157188140465602e-05  -1.2355014047412790e-04 -1.9047994446887251e-04 -8.2890782700027689e-05  -1.5098815161733356e-05 -2.3415225602493728e-04 5.2850341719920575e-06  -8.3631172672033789e-05 1.7738373981477881e-04 1.1853061348370126e-04  -1.2107201504012634e-04 1.6368683008569825e-04 6.1432092708174570e-05  -1.4539901297310815e-04 -2.0577096702117817e-04 -2.2952585283462917e-05  -1.7688413866387084e-04 -1.7031721268019444e-04 -5.1727719136276002e-05  -1.9094265010835516e-04 -1.0412260531049069e-04 4.6651041390585286e-06  -1.9930430734266803e-04 -1.5402453890327487e-04 -2.9185806095215943e-05  -1.9801454350586693e-04 -1.4034058685548391e-04 2.5330608896209037e-05  -1.8252574120249411e-04 -9.0681039850776373e-05 -8.7229690668766077e-05  -1.7785876446772353e-04 -1.1207667203584381e-04 6.4673117950596931e-05  -1.6800434614366394e-04 -9.0087195851640359e-05 -3.7139792653587696e-05  -1.8045435568618198e-04 -1.0905770474845616e-04 7.8538252572151656e-05  -1.5362900229738753e-04 -2.9385571113707101e-05 -8.7261337933754537e-05  -1.6407561435586088e-04 5.4193280466822883e-05 -6.1175995463727938e-05  -1.4160456899375465e-04 -2.1180342429606090e-04 1.0895938168702831e-04  -3.0726013728995788e-05 1.3464602666506074e-04 1.6211001643540784e-04  -1.5041141690364288e-04 1.6802575519648104e-04 9.0753713471594145e-05  -1.4125335110541166e-04 7.8779840945820547e-05 -1.0127016793144434e-04  -1.7363198522369369e-04 1.2685386949758535e-04 -8.4292921976953806e-05  -1.7863129537201605e-04 -3.9373877010376719e-05 3.6947906020411633e-05  -8.4271956667825626e-05 -1.4663821254844541e-04 -1.3745844849227394e-04  -1.3304073246608785e-04 -1.0936057755574368e-04 1.0221147101930174e-04  5.3982570778090434e-05 -1.4416493618067160e-04 1.4599893607809971e-04  -1.9095076499772137e-04 1.4538783615123654e-04 -2.8640192131303187e-05  -1.1254638080944945e-04 -9.2383673779920569e-06 -1.2282710334687999e-04  -1.0119754099941473e-04 -1.1941012742914900e-04 1.4626728067882033e-04  -1.3100873060830471e-04 1.0425061541320853e-04 -1.3335954644740330e-04  -1.4606443207831630e-04 1.7023164149606879e-04 -9.4268808561447030e-05  -1.2587705609023016e-04 -2.0585023700117245e-04 9.7267443249914571e-05  -7.4358156462436440e-05 2.2832318797604676e-04 1.5341911083259733e-05  -9.2971166600569618e-05 -2.3258049126176221e-05 1.3213593378891991e-04  -1.3878092410063377e-04 3.2146026558513825e-05 1.0664097424259866e-04  -8.4687202693599559e-05 1.9157182786754391e-04 -1.3598728748324016e-04  -9.2575657586424129e-05 1.3599085501076854e-04 -9.2582554745320036e-05  -6.8536495306154106e-05 1.2639199213078234e-04 -1.5731177647303849e-04  1.3984136394954986e-04 -2.1198169181537539e-04 -6.0975727325430994e-06  -1.7287809637295240e-04 1.9742313554511578e-04 3.5983594596109007e-05  -2.0135190518191833e-04 6.9550848592297163e-05 6.2962367618130474e-05  4.9671122875904316e-05 -1.7714407794435928e-04 1.0218613936678175e-04  -1.7431335958599231e-05 -2.1411241362517618e-04 1.3231562739656223e-04  -5.9076085267891185e-06 -1.0041848728357655e-04 1.6261369710135620e-04  -5.4155652525053595e-05 -8.8835385028574750e-05 1.4443194526598868e-04  -1.0746842331387485e-04 1.4540431988950360e-04 1.3850968624796255e-04  5.8448003177516606e-05 -1.7273383923309974e-04 -1.4341166760345077e-04  -1.4846822902812068e-04 1.7968077411447726e-04 -4.7071728938271767e-05  -1.8238857100615406e-05 -1.2305879696965038e-04 -1.6686573142772417e-04  -3.6172740427626450e-05 -1.0381498563635254e-04 -1.5723723417340472e-04  -3.1904747317056089e-05 -1.8202789191579567e-04 7.7695458827236181e-05  -4.4048875763139710e-05 3.9677438846467730e-05 1.4646001535932224e-04  -1.9840638223486972e-05 1.7589643057699350e-04 -1.2506541066346514e-04  -8.8455254482613021e-05 1.2389509933860435e-04 1.2731391910470797e-04  -1.5244206436386886e-04 1.3326096710357272e-04 9.9272408349604003e-05  -1.7356749891563836e-04 7.1630851413829566e-05 6.6574383806986033e-05  -1.8368384202806245e-04 1.1442421423646925e-04 2.0726808829113594e-05  -1.9247284472875858e-04 2.8865851541247775e-05 -1.2744502100704991e-05  -8.8720481393700975e-05 -1.2608074562182566e-04 -1.5265188303886754e-04  -1.3449069163583557e-04 -1.7914818990549374e-04 -1.2303652346530992e-04  -2.4793509776891352e-05 2.2861498945232368e-04 -7.7504731338643381e-05  -9.6673700469948173e-06 -1.3684480766072333e-04 -1.4419263430555813e-04  1.1040086450915213e-04 -2.0979036293764804e-04 5.8733713366870114e-05  1.6962840860004083e-04 1.1621570010924462e-04 6.6904845099026385e-05  1.1990095778793207e-05 1.1290782333245517e-04 -1.5317805901342968e-04  4.6413973733899269e-05 2.3401600098033436e-04 -3.6435995795705442e-05  -7.4229051854910269e-05 -1.6785927254614052e-04 1.3892823455679464e-04  1.8336741393624718e-04 -1.1840686873895076e-04 -2.0187595528338118e-05  1.6398520765840960e-04 -1.6295992515761817e-04 5.3381686965428969e-05  1.8896980806474347e-04 -1.4501815851635384e-04 -3.6705978373100968e-06  -1.8162761343622680e-04 1.9852267679638667e-04 -4.9149083338605588e-05  -9.4990634099504251e-05 -2.1468519633975744e-04 1.7189847783055178e-05  -1.4806214009093689e-04 -1.9939506064130781e-04 3.9456269646625554e-05  -1.3388486556474267e-05 1.5814264264300831e-04 -1.5582800559853715e-04  -5.1162447295784486e-05 5.8499303475397525e-05 -1.5316548028270513e-04  -9.9671854829967108e-05 8.2286912310480367e-05 -1.3159645940918226e-04  6.7615984601925106e-05 -2.1793262847455552e-04 -1.1637567982341485e-05  8.3302038415290544e-06 2.2776066498539371e-04 2.6998064983600513e-05  1.3582957994575013e-04 1.5754038729117777e-04 1.0813256167126047e-04  1.8356171518959971e-04 -1.2127696198399929e-04 2.0207710199670925e-05  8.7594393279390121e-05 1.1800962466554991e-04 1.3327890107309008e-04  -1.9530909987609222e-04 1.5922260124548991e-04 4.1625953232376392e-06  -4.5613107470263983e-05 1.5351512161339024e-04 1.4818054936006314e-04  1.1438055917967186e-04 -1.5674259239193105e-04 -1.3758981763724215e-04  -1.6462690214195152e-04 -2.2732220345004543e-05 7.5131193934386422e-05  5.8869655715933199e-05 1.3009441210008331e-04 -1.3416671771126698e-04  5.6057247437913450e-05 -1.4866792983294022e-04 1.5165145463418763e-04  4.1254772282077252e-05 -2.2968035649837158e-04 4.9822420765627417e-05  -1.5239796772962254e-04 -1.8237132186331925e-04 -9.3431854955571122e-05  1.9120735471103280e-04 1.6507354767844427e-04 -4.8614581216630799e-05  -6.4293743012288976e-06 -1.0686949355487492e-04 1.5561065008593057e-04  1.6885516712831952e-04 1.7984853159734625e-04 7.8160031181688047e-05  -1.8273801658861302e-04 -1.2418760973375293e-04 -3.9566570092035140e-06  -1.4150432869927348e-04 1.5475500959301854e-04 2.3984801733945720e-06  -9.0075693179304627e-05 2.2077141427876546e-04 -3.8771687651406559e-05  2.0378705083769850e-04 -1.4719040508232942e-04 -1.6200106487572505e-06  -5.2648573858642979e-05 -8.6995224212330170e-05 1.6103786468708121e-04  6.5043263665375537e-05 -1.5701886326497053e-04 -1.5889256020929589e-04  -6.2536918958074538e-05 -1.3692262851207035e-05 -1.3760959401011694e-04  -1.0141088246499178e-04 -1.9332455676531401e-04 7.1339845331470285e-05  1.8681690943677466e-04 1.6684102799611379e-04 4.8787602416575858e-05  -2.1552778501206943e-05 2.3210415241674731e-04 -2.3617440134787070e-05  -1.2803047337623660e-04 -1.3065715542845278e-04 -1.0990331550523590e-04  -8.6955993618817416e-05 -1.0620736404756576e-04 -1.2786129974928060e-04  -7.3771961268884732e-05 -1.8184152397779832e-04 1.1340191031255146e-04  -1.7808802390512126e-04 2.0872100244911237e-04 -1.2146149783290136e-05  -1.0047338950930115e-06 4.0456624358604917e-05 -1.5961537300030656e-06  -8.5997317397201075e-05 1.1596802080533205e-04 5.3718062668273382e-06  1.1329356764635545e-04 -4.5975231712784857e-05 -1.9893864374795788e-06  -5.2398719557959151e-05 -1.3141867528569480e-04 4.7025050361320621e-05  9.2456646936539953e-05 9.7704128902774073e-05 3.9918646478930291e-05  -5.8486958110952889e-05 -3.2575848911406007e-05 -8.1824658371360814e-05  -1.1895917372075813e-04 -3.5686270172147766e-05 -8.2682602145306989e-07  2.6711519857233347e-05 -1.5229285791705733e-04 -4.2472112979586457e-05  8.3673716841495271e-05 8.7635350103299240e-05 -5.9666274692566939e-05  -6.2193039501702140e-05 3.8905146942792584e-05 7.7842412085529699e-05  6.3356423158657130e-05 -1.3186672788718774e-04 6.8058505639783724e-05  -2.4652400779260040e-05 1.1249032351143697e-04 -8.1035359285603573e-05  2.4311833360642611e-05 1.3996254668703322e-04 6.7676389570482154e-07  4.5056921637117898e-05 -7.6825989164092971e-05 -8.1306291434920803e-05  -2.0519476830142561e-05 1.1927880474416964e-04 7.9305354140922751e-05  4.0618050819629629e-05 5.8283829010456342e-05 8.7077436678248486e-05  -9.1570191617492455e-05 -1.1470832391080233e-04 -4.1154073013253910e-05  -1.1714974418663610e-04 9.3180958966561920e-05 -5.3992545180382258e-05  1.0653273322363184e-04 3.8200284144225049e-06 5.3442454655714560e-05  -1.4959085887917289e-05 -1.1834972811429137e-04 9.9761262498867921e-05  3.0106367849286929e-05 -1.8846049279474378e-04 3.2922816309590894e-05  1.0769735596004986e-04 -1.5038580026528202e-04 -5.8635053777492439e-05  1.1660892738253962e-04 -1.5011056897747352e-04 6.1568620667113676e-06  -1.0977013865891370e-04 -9.7511451261512704e-05 5.2421250496538570e-05  1.2967446286576807e-04 1.0050222040343649e-04 -8.8416052296367922e-06  -3.1717045750683855e-05 -1.5240301729244261e-04 -9.9616874841647817e-05  -1.2713764328861502e-04 1.0206939444116113e-04 3.6677201545246985e-05  1.1581692428055577e-04 -3.2424087852532310e-05 -4.7440492405516480e-05  1.1363683264573058e-04 1.7331710537858805e-04 -1.7666592531618494e-05  -1.1697025505509673e-04 -7.9749243905279720e-05 -5.4528804992008819e-05  2.6907042536532156e-05 7.8250894092159268e-05 -1.0647959282540870e-04  -5.6263919034674053e-05 1.8683598325555930e-04 -3.8047842511226647e-05  -5.4416391673833539e-05 1.9904739614103262e-04 3.5401036182436965e-05  6.2454835128142905e-05 1.7573519607341951e-04 6.8648584788304638e-05  -1.2868627107875656e-04 -1.6426945642451939e-04 2.7468213339993931e-05  5.1643878012099515e-05 1.7773682906834477e-04 -6.8795058813513380e-05  -3.9399009973743734e-05 -1.8244401694536490e-04 -1.7437187477829030e-05  -7.4496421992547771e-05 1.0808836810011502e-04 -9.5695309210653933e-05  1.3231781283972724e-04 -1.4856710895398741e-04 4.5198368287277665e-05  1.9487179754392433e-05 -8.9447382082970920e-05 1.1129721945408416e-05  5.7549963846207756e-05 -4.1644851050071117e-05 -3.2804470147282752e-05  </DataArray> 
</PointData> 
</Piece>
</UnstructuredGrid>
</VTKFile>