<?xml version="1.0"?>
<VTKFile type="UnstructuredGrid"  version="0.1"  >
<UnstructuredGrid>
<Piece  NumberOfPoints="201" NumberOfCells="657">
<Points>
<DataArray  type="Float64"  NumberOfComponents="3"  format="ascii">-0.01084307554895568 -0.02992736466031101 783.1946015951946  -0.004492911518835131 0.02558711734021731 -783.2022516238435  1469.84490737165 0.02634018348250246 -744.9988077252053  2795.472233375609 0.01534496370742274 -634.0066126305238  3847.033370327738 0.003864188397794503 -460.9193866824144  4521.906120497543 -0.001201464400706873 -242.4136032425485  4754.40469251863 -0.005788598218159693 0.004399109371726346  4521.90917056442 -0.008742452164532439 242.4135722252919  3847.03289702437 -0.009310531779035828 460.9116677086961  2795.469509777592 -0.01421358004063126 634.0192626547773  1469.846368467801 -0.017340266092912 744.9896126348124  1862.00897803701 -1382.718608437271 -679.5754008241411  1849.932975701091 1074.056098945741 696.7957663105632  4525.50446269706 -1230.706229308297 -115.2608315911563  3258.993221744617 -1343.089257273865 524.134944053454  4116.483717104878 1244.804266033277 328.6700767458251  4099.390131737582 1244.790197350605 -336.6928296080162  2079.140330977801 1237.670410984803 -673.7263093444863  716.4822401965629 -1237.720384102255 746.5445235027315  3237.894157290152 -1237.567537554177 -532.4881349435377  2253.83260353095 -2428.14034352248 -548.9798804820509  3348.36996077712 -2379.825199692712 -377.8096728260781  2295.857229426307 -3401.834441785351 -361.8290839016087  3234.628595809752 -3192.492843750851 -177.0516069280191  2029.591668357307 -4049.872141410864 -149.223200390087  2889.876298477281 -3634.534347415379 41.71976901992723  1517.923776640323 -4326.799074119984 73.41399952638506  2201.881530352355 -3759.156952986378 267.7933615536821  793.1769656759466 -4212.378343107067 284.9877002016892  1409.280382747206 -3436.25719984871 467.849484193586  -54.7602637209493 -3691.094324107886 468.9980353801371  3376.777045389488 -2953.146993930567 225.7652735006953  3237.907085399963 1237.563637791724 532.4937943477704  3280.378115244273 2395.531199887319 390.8014610438119  3972.258713677439 2295.413713201403 175.9922589368026  527.2445716188956 -2742.839953436486 625.1728763921252  1930.716412080676 -2405.200432520727 589.2655416569943  2253.633191315197 2289.677195574945 566.1345270129016  2171.240586162762 3349.301382338446 395.2133718543893  4534.17726685827 -1200.717819978639 117.3103150056035  3997.617366855989 -2481.218427563571 15.56772640084875  4125.609155055135 -1245.9153145354 -325.4289202354043  716.4803793367404 1237.7229905266 -746.5340360594158  3205.699089293018 1206.548406630698 -542.3614311160087  3255.289438663955 2382.661628677999 -403.2397101760748  984.997049728568 -4086.715178455769 -312.8606463836953  -689.1264931627002 -4262.409707993838 270.0377571847451  961.6001472858753 -2490.56225513885 -635.8189055230331  3945.129715392396 2322.796312716472 -185.9303499781827  2950.153228635123 3355.551445004911 -224.2983719249254  2094.98503840507 3265.928380782161 -431.8078719365836  1653.806398668983 4067.026997967069 -242.2450582617458  730.7052210601029 3819.170936772106 -420.8012772901573  213.8681636844649 4402.978864530422 -220.4383272637463  -749.0521727947 3929.46062433559 -388.7869901920394  -1235.869121502531 4324.19554472152 -167.0839466683982  -2178.196629283616 3693.206047076813 -298.5363066588422  -237.7104910752396 4579.419972697548 10.54405619515929  -1518.633740819635 -3548.300224422735 432.5566997216481  -2097.417352434809 -3923.721738956219 215.9639933519377  -2557.328253014241 3837.846273990126 -83.06460156510204  -3378.254000167925 3002.170308034331 -205.0943827923777  -3598.38939340886 2995.450689047564 15.58471073258583  -4221.186360936757 1976.381008529578 -128.2491569335742  -4279.034504019112 1875.973183017902 116.4995220031035  -3750.343433240091 1873.344499063742 -362.0539406289826  -3460.530107380397 2771.929624662116 251.6524463127411  -4465.879805935861 819.3361108389943 -230.5657008615738  -3953.317754535126 1542.222816952933 345.4935379212627  -3801.921087165289 526.022716045636 -462.8462660634846  -4268.940485020095 -595.0701230014026 -329.5181443507856  -2941.191307411822 2324.794697685692 468.4386013210873  -656.9759640687089 -1900.561738751109 707.0481520648082  -2864.671600880853 -3034.513742209705 352.8997547945825  -3416.587387417841 -806.1488111251962 -526.7850649001978  -3690.745198694232 -1892.010435258841 -372.150969123878  -4568.340177561849 519.9841509041805 197.8963508438564  -1589.685134901391 3058.888027382467 -525.2330268316952  -3253.382573153245 992.7568172262513 544.9740572625907  1022.711140903362 3090.876596478966 550.7322994439421  -4401.549492291655 -1549.859904692499 -131.6501136314582  -2768.367976625347 322.0188258317218 -635.2230412152977  -2156.774598555607 1769.053482443447 627.65272152681  -2659.958852461958 -2035.469877815849 -546.6740612209597  -2784.824982334343 -3030.452607422834 -365.2834989137928  -2346.925172318204 3412.502056232632 349.8899077651752  -1198.194821686996 -4428.118441583297 54.26643959536278  -2271.571841824769 297.8564838236038 686.1487610614687  -3356.007900699382 -430.3251631292251 550.9797914117011  -1607.591723220801 -3039.281894618893 -520.6952449287085  -1612.684623778434 -3874.309990738435 -321.0002573033055  -1385.49107953315 -1924.736060530237 -671.3231435235307  2410.498591881908 3950.715491563647 -25.48317417088665  -3241.795460870852 -3254.706935043444 141.8674799599532  -3903.569737692304 -2198.173960860994 245.262133739302  851.4744320811564 3979.162423496628 359.9560916852294  -307.4099654633428 3588.952219236925 481.809498106715  -106.5095796386014 2704.521277188596 629.5963365700868  -1288.476708630041 1142.731974551471 726.9963895068386  -2148.361880132805 -2481.843514173016 558.6662067481827  1121.312174351689 3021.817337103023 -563.2091077245442  -2664.807343022104 -3663.770337529344 -167.9823110618234  -352.1881578160313 2318.33442994159 -676.3190387160842  -780.5123905855736 994.093790523345 -755.0634357685478  -529.0370847294387 4283.694521532634 262.2470743087475  -1004.959397461038 -703.6355791142686 757.0176243125411  -343.6008067698382 -3758.182869918888 -442.0605417760204  -2171.184744617957 -1130.679131536417 671.2108991946865  -3346.544810943249 -1820.093450033522 463.8664876506907  -4165.965375594745 -874.8062700806812 348.0300552116935  -4557.776595952732 -1135.621519467212 111.0511919889967  -4733.946978374378 -147.7043338989268 -68.03422818880281  -1826.613863439579 1969.722968369555 -642.7825532273597  -2770.071239441614 2178.622195050465 -519.3595729551525  -404.3291855525227 -4316.263546925707 -252.6206685107169  -161.7675776286549 3388.685584933939 -531.1342955118705  1895.842565372126 4031.68122186205 201.2060851142096  4098.03833914486 -1190.876770444024 342.7580828063381  237.6491148236146 -1298.89083923849 -748.5720800420895  751.4798311962676 -4472.947979335479 -116.8827719228845  -1448.068063889763 2929.631230711933 550.7210200181764  4544.847662867342 1153.888396888963 -119.7628981812648  3037.611735838492 3325.056180697157 198.837481474826  3583.348075057527 3013.574614563997 -11.50161233240545  -3629.93240950717 -2725.552458087782 -195.9315092175741  -1575.160388342094 4312.226330363786 57.34266197125025  -2642.713521855115 3718.919936363502 140.2371739586976  -257.9261633629827 -2804.052311971564 -615.5250148877744  -1108.398413872587 -511.8269819965614 -756.0514264362845  -2336.450554042183 -821.4241641702431 -666.9796873319983  1098.29766618931 4455.758328287244 -43.88349779122808  128.6880108699177 -4555.895111651575 91.05359407849501  2625.644228684795 -2897.703164115011 429.3872123495202  4552.873230768323 1168.650344825072 104.4354910418763  2080.302861870057 -1228.759134411818 674.0960291298526  -4021.191266085767 -2444.156315891883 21.43387954134434  -851.2118940197527 -3026.009555121177 575.354086641663  2317.022095072102 2219.826793001625 -572.170005108494  -4073.99842549873 365.5658481950518 399.2070174657215  1067.47005662747 -3415.130760183417 -489.2977699019781  1164.942453260187 2202.503809447586 657.4061373939909  677.2674880843387 4435.804658999583 160.8954869766264  -2957.201386947168 2875.019826743965 -370.7518693989812  3976.186253038093 -2210.519251848485 -203.0738056696718  -72.79222738668209 1192.989069333331 754.7085201317809  3601.668284465658 -2151.47673275533 358.1321787581203  -4616.127147693454 1092.991398294634 -18.77277306871061  -2457.37950743386 -3925.661923790822 10.92172172212853  -1500.712006336547 -4284.713564657699 -126.2334156685996  4265.219061469721 2025.912464658466 -7.158393786337693  -1061.543179981002 2259.65663735842 656.4505730995468  1320.975307541943 2052.089944488249 -668.5273035774749  -1603.574212928896 336.9880390318655 -735.6830917086066  -1738.271801082913 4012.396487643712 245.5157629368726  4043.932134194474 -2055.959094366533 217.5158780469163  -323.8486942553218 -4552.10220227081 -74.80528228692721  -3049.86590428656 1192.361316771142 -567.1633052595707  -2084.615510909241 1013.37762026301 -683.8743636067413  -1329.613903804803 3689.517095608401 407.3501422751234  -3343.008959436845 -3250.786035384313 -41.10737110946872  0.001709495805504253 0.001212034782095655 -0.001853169620046551  -1516.638147120483 -1794.720148286877 23.82154018281592  2293.361506933298 699.9112978855311 -4.409886495977108  -913.6365038088148 1886.43798370875 170.3303131273234  1709.448985607876 -1337.291029250807 158.6290000691508  -1113.795593752083 195.7687427568891 -349.0131066132244  -2358.754582762942 356.2245421828411 -0.1271219737319332  450.6468215599288 2133.809691294618 -152.4287643094582  1593.185487142623 -1051.522405442351 -233.4113858286063  -1239.322106736999 -199.8177784789636 338.5323092401297  1188.349451452314 1587.718144471441 270.8850995182784  -438.8190500038592 -1811.893019709049 -294.1194378681993  392.4738661598294 -2616.747734589143 4.460325658074967  946.22430026465
[...]
<PointData  Vectors="Velocity"> 
<DataArray  type="Float64"  Name="Velocity"  NumberOfComponents="3" format="ascii">-4.8656769745062800e-10 -1.3918173799011296e-09 -7.1064713062255068e-08  -2.0142860052555679e-10 1.1977113530926776e-09 7.0722088532273510e-08  9.0329194079275167e-08 1.2232770483630524e-09 6.1477102424744924e-08  1.5659114031439132e-07 7.1488666045387246e-10 4.0086055848060782e-08  1.8841320920621938e-07 1.8462694792833391e-10 1.6296020246493131e-08  1.9669596665927418e-07 -5.0453132155781486e-11 4.3626869166170024e-09  1.9745698443327108e-07 -2.5934705316150299e-10 1.9703834624100637e-10  1.9683238717236056e-07 -3.9531916840298458e-10 -4.3637947469799431e-09  1.8839206367394836e-07 -4.2918669994828744e-10 -1.6641332793144192e-08  1.5646897927246366e-07 -6.6457735262705064e-10 -3.9520043500178034e-08  9.0394860008773599e-08 -8.2081719474566231e-10 -6.1888740717993780e-08  1.0764816887360576e-07 -2.9194808867026058e-08 1.2158815724062086e-07  1.0934371177762532e-07 2.2795621824628303e-08 -1.0968568487467600e-07  1.8928527204734205e-07 -1.8388616979363740e-08 4.8191678275087498e-08  1.6641098273551734e-07 -2.5497129740698603e-08 3.8562159360869413e-08  1.8554130719780796e-07 2.0260415945070364e-08 -5.8815178909282025e-08  1.8570493940888030e-07 2.0281742579085476e-08 -4.2662590346438578e-08  1.1949846838462856e-07 2.7647859424576316e-08 -1.8540741049123190e-08  4.3840182154924436e-08 -2.9900204496252273e-08 7.7162898264683461e-09  1.6625535137313438e-07 -2.2990637537290810e-08 8.3052034281397314e-08  1.1563158850874185e-07 -4.4333428487855940e-08 1.4452169928077519e-07  1.5370807222650440e-07 -3.7875279610203064e-08 1.1263105067244377e-07  1.0184137791969703e-07 -4.9999552195826534e-08 1.5524831422488102e-07  1.3304034778464526e-07 -4.2607611620859413e-08 1.2733691498715923e-07  8.1052405204904301e-08 -4.9815147012738843e-08 1.6047354529668452e-07  1.1464328869041034e-07 -4.5314939799234047e-08 1.3719500688536659e-07  5.8761212589537023e-08 -5.0883413871213007e-08 1.6445327686131632e-07  9.2197604006451806e-08 -5.0740734748521413e-08 1.4419044517888880e-07  3.3118558349824182e-08 -5.5331160128936995e-08 1.6325515017291688e-07  6.6899956917539886e-08 -5.6268726231003293e-08 1.3486462374085320e-07  -2.6122592772021099e-09 -5.9450262945315521e-08 1.4616545621336884e-07  1.4255250982948537e-07 -4.1538943113150563e-08 1.1147689413213580e-07  1.6683532605881793e-07 2.2815750729658791e-08 -8.2798393977564199e-08  1.5157691086453431e-07 3.8307923416421560e-08 -1.1462557149353951e-07  1.6638543902316717e-07 3.2799625136443792e-08 -9.1620569702582511e-08  2.8322428299953893e-08 -5.5198398449541849e-08 9.8809919411689545e-08  1.0308881362235604e-07 -4.7194270996820307e-08 8.4093871417302806e-08  1.1736795762457097e-07 4.2534768567781930e-08 -1.4119605770699800e-07  9.8331513314193905e-08 5.0653024745789890e-08 -1.5842370630956366e-07  1.9004213515641463e-07 -1.8083756480198578e-08 4.4194748278007137e-08  1.6360259317955462e-07 -3.4231337200946346e-08 9.3854870976400694e-08  1.8634399592164437e-07 -2.0306865191037135e-08 5.8856934388048274e-08  4.3756119815158283e-08 3.0018085957801459e-08 -7.2471003940990888e-09  1.6616082950382829e-07 2.3611673461835826e-08 -3.1199063755892272e-08  1.5111670936720050e-07 3.9071203782250420e-08 -8.8761896196639643e-08  4.1720365226382029e-08 -5.4805746083475044e-08 1.7930042216146287e-07  -2.9477754107221237e-08 -5.5714289393204296e-08 1.6544005298697384e-07  5.3140368968242855e-08 -4.9298244570967388e-08 1.7049832222355733e-07  1.6586947285957362e-07 3.3843465871442584e-08 -8.6844736144912504e-08  1.2287578379417571e-07 4.5513200361309483e-08 -1.2699962632798911e-07  9.7614967387789647e-08 5.1819528374868591e-08 -1.2615018605606147e-07  6.8212761889578377e-08 5.2502970042531464e-08 -1.5598737310571959e-07  3.3395751658838929e-08 5.7761371879125993e-08 -1.5012469134760196e-07  8.1319912835697117e-09 5.4152748847513567e-08 -1.6910133120360479e-07  -3.3701148353339972e-08 5.7587061135866375e-08 -1.5408374495843717e-07  -4.9693936765421430e-08 5.2310960954393531e-08 -1.6488737872741184e-07  -9.3705268290786659e-08 5.1812796888120686e-08 -1.4253786199529500e-07  -9.8305172085371198e-09 5.1493361872885368e-08 -1.7569203872927902e-07  -7.0640840882280694e-08 -5.6095638861659650e-08 1.3905053169798399e-07  -8.6048102804001692e-08 -5.1470797880752074e-08 1.5035397287886712e-07  -1.0242945339961809e-07 4.8154608664879304e-08 -1.4544621519551400e-07  -1.4111967609695181e-07 4.2654543509077843e-08 -1.1386715645461064e-07  -1.4471702639218449e-07 4.0218065688481291e-08 -1.1373025123504243e-07  -1.7600306665851623e-07 2.8653775384418357e-08 -7.3332517391635153e-08  -1.7788454393036518e-07 2.7190939574884089e-08 -7.3207617665379231e-08  -1.7063461364906305e-07 3.0840695713176010e-08 -6.8178087973263820e-08  -1.4755814617631423e-07 4.0414389152627306e-08 -1.1596092036506623e-07  -1.9243329804038154e-07 1.3450191672021464e-08 -2.8656674572508724e-08  -1.7892095654460488e-07 2.5059257740290450e-08 -7.2891605666631736e-08  -1.8576388025710008e-07 1.0455467295556063e-08 -7.1448131986577552e-09  -1.9175307184523758e-07 -9.9209141048680843e-09 3.2406724393112251e-08  -1.4301432742310067e-07 3.9937418598500891e-08 -1.2357656537255683e-07  -3.8949392109719810e-08 -4.3014279194739985e-08 4.7884859536568836e-08  -1.2809550150548489e-07 -4.6956232283963105e-08 1.1626047017738189e-07  -1.7471416140379981e-07 -1.4974133590895258e-08 6.1306329805358644e-08  -1.6858246733764257e-07 -3.1111722766542581e-08 9.0679805729564773e-08  -1.9479342970247426e-07 8.7244888224533441e-09 -2.3845627200786411e-08  -7.9543569008916728e-08 5.4134710888555536e-08 -1.1735256550596158e-07  -1.6880897418515547e-07 1.8937051117218268e-08 -7.3002845787671226e-08  5.2308685237568791e-08 5.4416429168470655e-08 -1.7810458540011160e-07  -1.8260578206357762e-07 -2.3100221559603824e-08 6.0823558753512398e-08  -1.5434400889928630e-07 7.6571514134677732e-09 2.3284158847304682e-08  -1.1888022442198551e-07 3.5899300349176944e-08 -1.3022476244224951e-07  -1.3659446438287647e-07 -3.7958183174280963e-08 1.2443151057979395e-07  -1.2527035582187787e-07 -4.6403850502018615e-08 1.3972388721418171e-07  -1.0379256718520820e-07 5.0636061725656217e-08 -1.5485137346414324e-07  -4.6805459762632413e-08 -5.1637041870678558e-08 1.6886039613278922e-07  -1.3267581138070372e-07 5.7902171012451200e-09 -6.5174983420491895e-08  -1.7509122980500450e-07 -8.6647229564490511e-09 -6.5427217508787422e-09  -8.0143899408536058e-08 -5.2662090949620953e-08 1.6853638211193824e-07  -6.9413178818714675e-08 -5.3728356773117574e-08 1.7083057310965968e-07  -7.9525231398491888e-08 -4.0272286969813930e-08 1.4973450759049215e-07  9.5610879373440527e-08 4.7543924313815080e-08 -1.4968344061076564e-07  -1.3272410709739003e-07 -4.4152353942448622e-08 1.2311402925926249e-07  -1.6725114860139874e-07 -3.3384346553118954e-08 8.2257964899790708e-08  3.7110038377321035e-08 5.5756769845364819e-08 -1.8131898702143223e-07  -1.5444955402584975e-08 5.7484317242703790e-08 -1.8706744484261468e-07  -6.0119727893865638e-09 5.2415678863246707e-08 -1.7927977484714463e-07  -7.7898516837191780e-08 2.5469730250708857e-08 -1.2113550157879384e-07  -1.1089721551425131e-07 -4.7455466246503892e-08 8.9879454902692051e-08  5.7713015913356120e-08 5.5921647891207475e-08 -1.1501774964066919e-07  -1.0851551008845592e-07 -4.8360517236467982e-08 1.4717742821705475e-07  -1.9945335666271122e-08 4.9748595855728440e-08 -7.3759019456108973e-08  -4.8377199113433313e-08 2.4600167646447054e-08 7.5992703947828504e-09  -2.2366607060612756e-08 5.4425721352598694e-08 -1.8141138394825145e-07  -6.2219896335831243e-08 -1.8508886945466339e-08 -2.4408367398975051e-08  -1.5965944688395215e-08 -5.7924666611019495e-08 1.8695983231384437e-07  -1.2411806205458004e-07 -2.5220119721637771e-08 1.3722989446428473e-08  -1.6274956564229143e-07 -3.2982087895159707e-08 6.3563816281078322e-08  -1.8880627923718043e-07 -1.4751166225008374e-08 2.7838293355793981e-08  -1.8872787541164813e-07 -1.7120391191051857e-08 4.1885653808595056e-08  -1.9614864993024971e-07 -1.9532252749811345e-09 6.1219755187087283e-09  -1.0225046990571183e-07 4.1567503008120931e-08 -5.9413422509736043e-08  -1.3993696625954463e-07 4.0237663588689812e-08 -7.7170809156111407e-08  -1.7486453733191690e-08 -5.4872870957622617e-08 1.8177034309046150e-07  -8.2663147293471774e-09 5.8711604148758635e-08 -1.3203499984592508e-07  7.7051431630547825e-08 5.0419863794199886e-08 -1.6367931055602189e-07  1.8652384676463560e-07 -1.9683609879140003e-08 3.9920130744820566e-08  1.3865516669650581e-08 -2.9031273483358400e-08 1.3735124031609744e-07  2.9402560183716679e-08 -5.2160836495243601e-08 1.7616617954912911e-07  -7.3892548765149849e-08 5.2668444443578186e-08 -1.7063346526869244e-07  1.9011467029547267e-07 1.7191620113220837e-08 -4.2291945115644983e-08  1.2542874207128311e-07 4.4388738957612884e-08 -1.3391089440096102e-07  1.4432171600639736e-07 3.9601002301297917e-08 -1.1335987185032378e-07  -1.5174079263652646e-07 -3.8933759305512670e-08 1.1061247167795813e-07  -6.1945867016066784e-08 5.0941507197720392e-08 -1.6675193672334802e-07  -1.0664871426242470e-07 4.7682964880303574e-08 -1.4668721695118127e-07  -1.3922759083126671e-08 -5.3981070769210394e-08 1.8213128325354632e-07  -6.8695438343854780e-08 -1.0818840857143464e-08 9.3371449098746079e-08  -1.3392108734553782e-07 -1.6632323299867954e-08 8.8367717601647311e-08  4.2245103923915119e-08 5.1387307383763144e-08 -1.7045750070006264e-07  4.2958704122317084e-09 -5.2541951442669684e-08 1.7375910540485615e-07  1.2255120606987898e-07 -4.7376867335740192e-08 1.1090704768693431e-07  1.8983708831397032e-07 1.7408858183303245e-08 -4.5698613857958432e-08  1.1920743348260834e-07 -2.7339754570114748e-08 1.8121975533555312e-08  -1.6409873321687977e-07 -3.4249361401245347e-08 9.2109798280532763e-08  -4.4492768143949754e-08 -5.6688765795071036e-08 1.1480207802906590e-07  1.2138720033070701e-07 4.2857398280669144e-08 -7.6425586886955773e-08  -1.9073500255827560e-07 6.5361101919288242e-09 -2.7634761522674447e-08  5.1348793057744812e-08 -5.6105125796329742e-08 1.8041129420421080e-07  6.5626450463452237e-08 4.5045298143326134e-08 -1.6116037592460158e-07  2.6293786638901393e-08 5.2370204978677826e-08 -1.7763220328558463e-07  -1.3419570359855141e-07 4.5352132238861429e-08 -1.0983547647573329e-07  1.6886899592123146e-07 -3.2114125371975878e-08 9.0135318320481290e-08  -4.6990261230180323e-09 2.6740317730539793e-08 -1.3307752077036334e-07  1.6365141378352904e-07 -3.5092493168755720e-08 7.9957584742597802e-08  -1.9048271834311320e-07 1.6640122416614182e-08 -4.1309025501838600e-08  -9.6867061167859099e-08 -4.8943521755037130e-08 1.5010846172653543e-07  -5.9333770871377475e-08 -5.1500898648916421e-08 1.6878982552143541e-07  1.7537833048373197e-07 2.8676595159985931e-08 -7.6004386408302155e-08  -5.9821469908435184e-08 4.5993729203447333e-08 -1.6335929279287274e-07  7.5440446573149670e-08 4.3753102384516093e-08 -6.1046116163484506e-08  -9.7636872445362355e-08 9.1254703611811071e-09 4.0387496917982970e-08  -7.2542482412923655e-08 5.2354392749831277e-08 -1.6750202134358527e-07  1.7270842998852933e-07 -3.0684527773195866e-08 7.6426000062845092e-08  -1.3654179172372083e-08 -5.2521585915022564e-08 1.7744732126728118e-07  -1.6111899370804083e-07 2.4202616232345560e-08 -2.8306920569896490e-08  -1.2067005359884739e-07 2.3098655914341974e-08 -5.7118059401389619e-09  -6.0809052702898554e-08 5.5097003307451133e-08 -1.7583031267911793e-07  -1.3450611661745756e-07 -4.2955418375780798e-08 1.2469235537105647e-07  7.5975844116105524e-11 5.4298121537281070e-11 -8.3118892642873204e-11  -8.9335664766924448e-08 -4.0910402774027974e-08 9.3246539789584972e-08  1.3583589255695416e-07 1.6255283618327063e-08 -3.6808710511149367e-08  -5.4961112045714349e-08 4.3107159916499573e-08 -1.1462449774956545e-07  1.0261046045087247e-07 -3.1486532384515416e-08 5.9892764290494949e-08  -7.1593221977069120e-08 5.6070215929818196e-09 1.9172776561718648e-08  -1.4009953251570927e-07 8.1805148105805927e-09 -1.8630068481029168e-08  2.7032438878815960e-08 4.8713393906494326e-08 -1.0302598473057938e-07  9.7718901397669053e-08 -2.4504626595354058e-08 7.5865011222170771e-08  -7.8560266327061426e-08 -5.6178456122463377e-09 -1.7546834592470560e-08  7.2133586969091688e-08 3.6339082014296538e-08 -1.0720178703329217e-07  -2.6487470345517900e-08 -4.1750845740277237e-08 1.2242355114982189e-07  2.2085476287552927e-08 -5.5632012551589776e-08 1.3467974995902865e-07  5.9873171583292994e-08 1.7935472048914812e-08 -5.5856182607668247e-09  -2.2123766220924458e-08 -4.7183709804656627e-08 8.7066263399180100e-08  5.3292109975411746e-08 -6.8159584571749717e-09 -2.2809112377170069e-08  -9.2988010634733094e-08 4.4118891641657383e-08 -9.3433494953617081e-08  -1.3752659214804419e-07 -2.0680261656410830e-08 6.4256823617005610e-08  1.4203300054855845e-07 2.3743667835745606e-09 -2.6001331060952519e-08  -2.0537318437639119e-08 2.9109560295497022e-08 -1.0731720394018025e-07  2.7004095339291903e-08 5.6657110424173914e-08 -1.4797937961938739e-07  1.1690056547778546e-07 3.6321828009297607e-08 -6.9356276810820937e-08  1.1021498729454782e-07 4.6770086995924963e-08 -1.1551664825192667e-07  -1.3553661240377010e-07 2.3284411177385955e-08 -7.2804470832949190e-08  1.6005635763616509e-07 -1.8564273762716036e-08 4.5874175253282707e-08  -3.4622124948211162e-08 4.3022806933011416e-08 -6.9258735135320425e-08  -1.5492910578547428e-07 -2.0875696287895964e-08 3.7948919647747888e-08  1.5565363147473990e-07 3.8935390914507024e-09 8.3473027273294129e-09  1.0908539383637847e-07 -4.6268414465026694e-08 1.1658728132290475e-07  -1.4752053962421324e-07 1.9302697963289126e-08 -2.6500788361065359e-08  3.7239783057860352e-08 -2.1113038789941170e-08 9.2437391242413522e-08  -5.0320483864342987e-08 -5.6754695685346216e-08 1.5007968745373615e-07  -4.7738391664832563e-08 -5.8365157585241487e-08 1.4005195001231164e-07  5.8800342439901036e-08 -5.4748263974500582e-08 1.1901635557344851e-07  -1.2411706044929582e-07 4.4695408762598078e-08 -1.1475471404544298e-07  5.0250756771010628e-08 -5.3413946223233615e-08 1.4883053073523315e-07  -3.4483933411249506e-08 5.8897873432871223e-08 -1.4600977645347894e-07  -9.4160029830934335e-08 -2.6159253788123722e-08 9.7223012814969521e-08  1.4756697498125466e-07 3.0478429506357227e-08 -8.4508708980557559e-08  2.1149075307572794e-08 3.3733425796439955e-08 -8.2340795010186491e-08  6.4489665099963963e-08 1.8924234059129878e-08 -3.0208570127568718e-08  </DataArray> 
</PointData> 
</Piece>
</UnstructuredGrid>
</VTKFile>