<?xml version="1.0"?>
<VTKFile type="UnstructuredGrid"  version="0.1"  >
<UnstructuredGrid>
<Piece  NumberOfPoints="201" NumberOfCells="657">
<Points>
<DataArray  type="Float64"  NumberOfComponents="3"  format="ascii">-0.8765641563212496 -1.26117508568846 416.8101609110582  0.518759286849626 1.19657754292486 -416.9010005607751  892.9507706696933 -3.989520823297445 -414.0554235172004  1689.649225528983 -8.091966356345893 -371.1971523210706  2311.184257997244 -10.31983042798189 -288.2073472808291  2704.272283063509 -11.09889932796345 -169.4499672700021  2838.686940035041 -11.3696810434166 -31.77855241255558  2704.225820312963 -11.4102452422904 106.0212629061413  2310.892291011911 -10.94323730069197 227.4909849867109  1688.977458513012 -9.445149559977489 321.1475921132676  891.9362414603805 -5.963804641984268 384.7102271770165  1131.979977192772 -829.6671766470664 -361.4645858443774  1117.244603742157 633.5377148915219 339.3479626319577  2706.394589930229 -737.4704389693546 -81.0812958970039  1965.143508202156 -806.9556657479753 285.1030377631047  2461.723212518524 725.3813774032271 138.6775055134462  2452.044469691738 725.5018774382813 -237.2306345335251  1254.586979296621 731.5361664702037 -406.8549725399099  438.4253870877306 -742.9265930846466 416.6606538173132  1953.184138875853 -743.7992602920189 -302.6722106542958  1364.599346910889 -1448.452678380834 -283.6047614429783  2013.99206421024 -1417.315674550018 -204.3604494635451  1384.159335545779 -2018.314142685161 -173.1226501237868  1940.322335454643 -1892.503109280234 -82.01011997688711  1221.361407235283 -2394.639003243688 -46.55296775750874  1733.361608556755 -2150.956034556167 50.21331587832758  915.3995503384886 -2555.50847478942 86.86375698010173  1325.574276334655 -2226.201049336061 186.5069116360232  484.2000823468043 -2490.15970390742 212.6961798831949  855.1840831203588 -2040.646982261267 301.576524200879  -23.47210625634029 -2186.956055704918 317.5255777093978  2026.151628702375 -1752.702916921511 143.3428146294506  1945.749365484637 724.6034892805884 248.5023397208869  1960.468796720514 1408.108410977442 160.2528774674892  2367.330361370735 1344.504708220403 42.98101607364482  325.8676104772795 -1634.393819277516 383.3478680834332  1171.307577240411 -1436.415654962888 346.5731523290341  1351.181654345585 1352.629025279241 255.3475925739618  1292.786638563694 1974.987869449534 156.4487130650997  2711.593203898859 -719.8925433587293 51.42493216369406  2393.235533025434 -1473.890107544339 13.13764230489968  2474.535546827485 -747.5439539569128 -197.3110162026154  431.3922843164605 738.0106747086583 -430.4132163524584  1927.135941684232 707.406642150537 -346.0245817959847  1945.806905088581 1401.206208479311 -285.144619749791  599.2818796588896 -2417.462927110204 -127.0463319841962  -402.4393962787667 -2515.028968062879 215.5924070482799  588.882329802331 -1485.114370944796 -312.2959796049878  2351.333684252088 1361.170762971191 -163.1209106113605  1754.744634174379 1972.405257681617 -192.0695547293561  1248.548368908762 1927.307612423284 -305.4293395617835  978.7664456077501 2395.764596162372 -203.1440530161634  428.697473040774 2258.147062768559 -296.8113102862089  117.3838935371441 2597.475671394187 -184.8046318876424  -458.710168074691 2326.846186300097 -268.6830651806899  -748.0965749202578 2554.322115441011 -142.6813625481103  -1312.529743854469 2188.475671892507 -203.4473890504641  -152.3735741429219 2699.983100142918 -50.92169285665101  -902.2061660232108 -2096.499992612035 305.8071684093465  -1243.800818629353 -2309.98859519676 189.1729027724535  -1535.915804216448 2270.688843843173 -78.9128626916163  -2026.456834569322 1781.826317721375 -132.5370025841119  -2155.259024769558 1776.409061748629 -4.634386183656192  -2526.629511455535 1177.041404523285 -69.49833748711411  -2560.698431632018 1117.777374776356 71.77567753983237  -2252.129543969918 1118.634524074693 -202.6925152705039  -2076.642033527507 1646.715565128955 130.7015822345754  -2672.163166300576 495.4703770676354 -111.0096352086776  -2372.504574197485 922.6044981256932 202.9996483713293  -2285.117200575859 322.9660504782205 -237.0149761678144  -2554.160983392569 -341.0298353118999 -147.0490865515085  -1773.960309005663 1386.402729217798 250.0660290641085  -392.748235840383 -1132.386558774591 421.9037637787973  -1708.091247920459 -1786.767992247012 262.3048370688165  -2053.703474212182 -468.2374665572461 -251.3518336469377  -2206.427096611329 -1109.469987624388 -155.0203959013608  -2731.609218232787 318.5835858867689 137.2936699849866  -964.7094654494899 1820.188887989294 -325.9691187914535  -1962.565044147178 598.8713912073149 313.3829078986046  607.1878628872805 1831.345180546447 245.1772521301706  -2624.144767438413 -904.068411834484 -25.48512708428349  -1673.263073153954 201.0958738736329 -327.6908944750801  -1308.558295895689 1059.469562228858 331.9883540984621  -1595.625290307842 -1200.346883622603 -247.0974235619419  -1660.621456856617 -1784.402937287154 -141.3622322782982  -1414.647697066909 2024.936652727598 166.7020856874177  -705.0301557396383 -2607.179213320985 95.99942090817559  -1376.912900429794 184.2083696716481 387.5697750051855  -2020.362549460159 -246.050174048631 339.6201105770351  -958.6650826173856 -1797.889727397179 -226.806904435597  -955.6266504448938 -2284.662244679583 -115.0056362521376  -832.267010381155 -1141.848229397399 -316.739947131533  1429.429744993321 2322.133196868133 -81.28450551123106  -1927.996712801484 -1911.889183005525 145.0763598436404  -2328.150318109048 -1288.492697038734 195.8247573416757  499.9733718251769 2349.866631051757 139.2169735524832  -194.7502236164551 2127.782825752623 215.1235553957827  -72.73356767073801 1609.046959600681 298.166098658353  -785.9540490302533 685.9646433301217 382.4088866071758  -1287.062885167091 -1467.985195295286 366.1900770023994  667.2107091061901 1791.455259571982 -368.6528467320297  -1582.631895745472 -2154.697350599401 -28.72569945411847  -219.6607215275298 1383.372490589613 -404.5052865262118  -476.8165254950972 597.8485665499188 -415.4214384350548  -326.7166410348109 2530.684991735488 93.98861320590909  -608.6297541228366 -418.5013771104058 428.3466361156433  -196.3902099616963 -2224.453748370282 -187.5381757341686  -1310.233950759724 -667.4453709671619 404.6077856197351  -2005.143969016752 -1069.831423991265 312.4914646049746  -2492.744802663659 -506.9101847110599 239.2803169787346  -2718.134128225021 -659.4342360901359 108.5608635162142  -2825.777475274187 -75.83611717414456 -5.418130788410129  -1109.680846361076 1179.317961767912 -368.1530275432077  -1672.780842012566 1301.437815808549 -299.531047359312  -231.9186496414177 -2547.048135418246 -81.41313016290124  -106.3773703992363 2011.229157934832 -345.8578096102358  1122.944264784428 2373.104712542232 47.44652840218126  2458.292677497566 -715.2248442975366 179.7620638362688  148.7358323118337 -775.8602681518834 -378.0485087984887  458.6414773400238 -2639.857151386448 -13.69690995549665  -880.6802341493004 1744.001043755088 269.0244462480646  2711.409588660001 670.0671700608141 -113.8178057210523  1806.549209976412 1953.704077851846 48.15520837566271  2131.23378884501 1767.650973376918 -68.75332869252189  -2161.942476171042 -1599.508463887867 -50.13482715998749  -950.0515730622523 2547.179379845516 -11.78670427043834  -1587.136776036391 2201.389019056125 50.15215993277033  -147.1952532692148 -1666.810909310865 -286.0007468797475  -671.0832266454463 -300.8989162688491 -383.6079098925258  -1410.752212166825 -480.9654464575709 -326.2744174502129  645.0286495691304 2623.535274039431 -89.80319514790672  86.64247753935679 -2686.551642771148 109.7535967934604  1582.941559271563 -1723.75823113939 262.7604825049841  2715.849985046138 678.7439686717944 13.97726937607743  1262.096844892677 -739.7525141403689 368.7405437808774  -2394.223708994467 -1431.773844634614 70.38482270369617  -504.8259617659292 -1795.428822651514 373.1673145730916  1390.103278042406 1312.005491204168 -370.7374709481202  -2444.20343292984 227.261958700438 250.0468431258209  650.8314483253256 -2027.803952390057 -227.877178215112  697.475816054431 1307.47385466602 307.4938348099937  393.9187617397876 2614.122028264582 28.48608485191335  -1779.828775633751 1709.543178612033 -227.2411484706273  2382.742196560686 -1315.337354795405 -114.5986743210102  -48.75948318378083 712.0903371448397 381.1604690150612  2163.846590582736 -1282.894034253101 205.4217414741759  -2758.770441465117 656.3395226272322 6.308676397971122  -1457.036429319872 -2308.262528126606 73.1781445059393  -885.957106772755 -2522.54654357951 -5.772136796258506  2541.235896260344 1184.519942087995 -58.30286762574633  -649.3105057377833 1348.826607678508 327.1357434239728  793.3504222063277 1218.618764023113 -411.3292311932838  -973.7537793350151 207.896110711183 -385.8411042563431  -1049.088701401 2374.037744263059 97.81990611133816  2423.028103679081 -1224.624399209765 122.3064694182965  -183.5270865278598 -2683.011193348976 18.58474103820829  -1841.538169349605 718.3167116885996 -306.3843201188258  -1264.629580263422 611.769771895997 -369.7044147454723  -807.1069954053202 2187.317883088083 184.970643188638  -1987.366862966733 -1908.558314297672 40.86693279884553  0.01223944479712377 0.05019859992749454 -0.02429254232690544  -913.2892706379259 -1065.870852511588 58.87883190135763  1387.324618438295 410.2056872965827 -36.13588442132065  -560.2513134674115 1129.149897861111 66.55673653034935  1040.718468506528 -804.4087051089797 93.63227834262983  -678.1243434805232 121.6545904103538 -178.9524791599302  -1430.452745274443 220.2473863896869 15.58793473947996  266.7623839221543 1272.208484531507 -125.0812765967822  970.7023594140373 -633.2718554078809 -121.7421140575342  -753.1850231293763 -115.7039681880999 197.213923967251  715.8449008137169 943.6269640669283 105.6336714226514  -260.2503538332207 -1080.360063703781 -120.7938073298839  245.1745715416233 -1560.649515727823 44.12058933330034  573.338930797884 413.0091516769234 -
[...]
<PointData  Vectors="Coriolis"> 
<DataArray  type="Float64"  Name="Coriolis"  NumberOfComponents="3" format="ascii">1.0436002866472326e-10 -4.5235982042119026e-11 -1.2677320256118078e-12  -1.0460146073885548e-10 4.8964186289836459e-11 5.7533813810177426e-14  -9.8074794152993987e-11 -4.4059816460728593e-10 1.6293192858967297e-10  -7.2658612126712177e-11 -7.9229652432837512e-10 2.7668008735238233e-10  -4.0578449110362799e-11 -9.5388041620018045e-10 3.2573171119590075e-10  -2.3970211198467103e-11 -9.9041705771366422e-10 3.3535191627451062e-10  -1.8454483831470560e-11 -9.9257163179597872e-10 3.3520580952028940e-10  -1.0780960160130370e-11 -9.9837298421332570e-10 3.3594126097302838e-10  1.0377624067222542e-11 -9.7933683230574548e-10 3.2624060752115180e-10  4.7222148028877998e-11 -8.4952173249355522e-10 2.7698534723181217e-10  8.6344292211605782e-11 -5.2597144849401951e-10 1.6251119706355705e-10  -4.1680040708039920e-10 -5.4710688359276360e-10 2.4871481127250941e-10  3.3485282965673181e-10 -6.1232251116845261e-10 1.5233871002508390e-10  -2.1862696698793442e-10 -9.6671058378252919e-10 3.5802814899076048e-10  -2.5449029453390827e-10 -8.8693011718789350e-10 3.3695849796433522e-10  2.1672923567481928e-10 -9.4247788569571145e-10 2.8144844210088172e-10  1.8804208825366230e-10 -9.2923171660416769e-10 2.8152527028072647e-10  2.1639960364762114e-10 -5.9003907639813694e-10 1.6350712064291608e-10  -2.3535905876598069e-10 -2.8285077358660372e-10 1.3170978150567838e-10  -3.0933977012450919e-10 -8.5422399813360861e-10 3.3463477077227677e-10  -5.6728538338448507e-10 -6.0285761541684159e-10 2.9104583142136655e-10  -4.6639804640380247e-10 -8.0292473892796977e-10 3.4216023016093810e-10  -6.3666187531824950e-10 -5.4432330988753125e-10 2.8235968217733957e-10  -5.3495972051628682e-10 -7.0670737740210967e-10 3.2073000882867604e-10  -6.5826588072330512e-10 -4.4346059753066856e-10 2.5198938589542283e-10  -5.7932207653735887e-10 -6.1702779864946895e-10 2.9768283939139999e-10  -6.7796872953516246e-10 -3.2952021266027103e-10 2.1694182149670716e-10  -6.2974255915306856e-10 -5.0457914267298454e-10 2.6796553819639067e-10  -6.9868599674054221e-10 -1.9667017715831228e-10 1.7572301966834423e-10  -6.4388393187375505e-10 -3.7971692621719101e-10 2.2838681606096259e-10  -6.8020768030006398e-10 -1.5539248419646781e-11 1.1217609217190395e-10  -4.9654324205069539e-10 -7.5678844004718436e-10 3.3145505744460337e-10  2.8091045449268902e-10 -8.7773440638121182e-10 2.4967940245871488e-10  4.4023244132342906e-10 -7.7843199408651567e-10 1.9137793053412941e-10  3.5582909522934384e-10 -8.3529369141340291e-10 2.2368848230886058e-10  -5.6677462269006187e-10 -1.9009906161304107e-10 1.5277786778257705e-10  -4.8740099648782721e-10 -5.7695422020642358e-10 2.6981050445332284e-10  5.2573438587686697e-10 -6.2729361673910597e-10 1.2733167047578734e-10  6.1802448699191443e-10 -5.0839116660976746e-10 7.3010144454802636e-11  -2.0963751392746343e-10 -9.7182387008101317e-10 3.5832629119281275e-10  -4.0985050797429954e-10 -8.5420839370287531e-10 3.5043649168238927e-10  -2.4967265679528950e-10 -9.5473147857773640e-10 3.5890009718596325e-10  2.2714655467515828e-10 -1.8408231873827429e-10 2.5906526569178280e-11  1.9869938315308863e-10 -8.3329925594811317e-10 2.4773196220559529e-10  3.9831638160858007e-10 -7.5303810507276920e-10 1.8946827882032651e-10  -7.2216556039138761e-10 -2.3189110024898628e-10 1.9120719227626771e-10  -6.9280248292526665e-10 1.3296977897402608e-10 6.4437419376941024e-11  -6.4609376703192317e-10 -2.6752081644869712e-10 1.9117215801481971e-10  3.5289979186892747e-10 -8.2591050328363815e-10 2.2100776066786965e-10  5.1590730594280342e-10 -6.1202410682969705e-10 1.2376505162379949e-10  5.6688399826875362e-10 -4.7996965375621614e-10 7.1537564276373407e-11  6.3922600283512944e-10 -3.3399074353826165e-10 1.1288258932543717e-11  6.7109862243478953e-10 -1.4757649834168358e-10 -5.6133944268944399e-11  6.9676573343248621e-10 -2.0911460911405298e-11 -1.0257676399947818e-10  6.9113714059510654e-10 2.0393579465421700e-10 -1.7696829913551821e-10  6.8656520462168127e-10 2.8334576713288383e-10 -2.0283499153579648e-10  6.3208897496793033e-10 5.1323392482913789e-10 -2.7123208892645182e-10  7.0029394704192136e-10 7.0797095979067789e-11 -1.3383478550603573e-10  -6.2756391566493505e-10 3.4130824588607145e-10 -1.5572141643723662e-11  -6.1407206588828892e-10 4.2605181397400452e-10 -4.6065294668210283e-11  6.1614221420295735e-10 5.5580024790810124e-10 -2.8297500206640315e-10  5.0839895585949331e-10 7.4906540675317889e-10 -3.3073396279963038e-10  4.9166439893097855e-10 7.6458108985265686e-10 -3.3329668520743513e-10  3.3334987814302525e-10 9.1149163238130455e-10 -3.5758340931210793e-10  3.2251338873345363e-10 9.1747511260264186e-10 -3.5788240771448300e-10  3.4026676264090423e-10 8.9440067254332191e-10 -3.5294931087337372e-10  4.9328429256788735e-10 7.7605263493220994e-10 -3.3739200396894914e-10  1.5248924805920345e-10 9.8268886715169825e-10 -3.5297629637953439e-10  3.0651609522408640e-10 9.2049148618283694e-10 -3.5637642681198769e-10  9.6900054248354622e-11 9.6894332010545629e-10 -3.3963211484672752e-10  -1.0387960234393319e-10 9.7480356423374066e-10 -3.1001820857624946e-10  4.9969126426907954e-10 7.4679460403302276e-10 -3.2860429379044495e-10  -3.8658440714923785e-10 1.6034203353211093e-10 7.1156856012686029e-12  -5.0536045572244865e-10 6.3616960870076303e-10 -1.3350739941675941e-10  -1.9003582900536531e-10 9.1667769800697539e-10 -2.7700875615299976e-10  -3.4611470356444524e-10 8.6089117319381729e-10 -2.3378602154505073e-10  1.1317712987947694e-10 9.8454922113924517e-10 -3.4741665646118634e-10  5.9561061388803302e-10 4.4979434830080072e-10 -2.4425630761801493e-10  2.6417908063647738e-10 8.6443871495393393e-10 -3.3095230929674405e-10  6.8915135062784483e-10 -2.8341674506627011e-10 -1.3495006148627949e-11  -2.3578544138517967e-10 9.1213521804095571e-10 -2.6829310785856289e-10  2.7805611572526713e-11 8.3936043484521399e-10 -2.8538277454776134e-10  4.8034942042293455e-10 6.1143326628167013e-10 -2.8024478635763647e-10  -4.6088709936025847e-10 7.2328710738943209e-10 -1.6966766666450935e-10  -5.4658863136188915e-10 6.4298586946679966e-10 -1.2930561881511523e-10  6.3983746491151154e-10 5.5511406995088025e-10 -2.8647173903297152e-10  -6.7012513904645173e-10 2.2756991861692266e-10 2.9199811881477783e-11  1.5688194922267287e-10 6.6872257359303840e-10 -2.4855419087168969e-10  -3.4278457139844296e-11 8.8316989487357879e-10 -2.9028603749032562e-10  -6.5345960550364219e-10 4.2696958592539935e-10 -4.0178226003612654e-11  -6.7318408106989456e-10 3.5440353050341508e-10 -1.2781806824035614e-11  -5.3148885094657197e-10 4.4713851060218164e-10 -6.6112471281016767e-11  5.8464546730254771e-10 -4.7787092905185366e-10 6.8041651876699271e-11  -4.9597601490376706e-10 6.6141177700473781e-10 -1.4343409295360051e-10  -3.4242109166849928e-10 8.3287550180491434e-10 -2.2498752163944965e-10  7.1572228135625816e-10 -1.8732918886915590e-10 -4.9842916297188632e-11  7.4117217890111385e-10 8.3173970620468565e-11 -1.4440721096358009e-10  6.8149189316410143e-10 1.7438962300222484e-11 -1.1301406163127722e-10  3.8746489825545984e-10 3.8409310996954917e-10 -1.8952586525548461e-10  -4.7087481127695239e-10 5.4474099275799748e-10 -1.0832139573798975e-10  5.8557591449016191e-10 -2.6747751761436697e-10 -2.5423892274097124e-12  -5.7844363866334406e-10 5.4674590018288574e-10 -9.2075675396719309e-11  4.8475641027128714e-10 1.5010674563077582e-10 -1.2649012543243243e-10  1.7212324995450855e-10 3.0745118521270749e-10 -1.3000090790604564e-10  7.2502962694674756e-10 1.3206446604964644e-10 -1.5823660551682983e-10  -8.9715970126633159e-11 2.8486388211623329e-10 -8.1260425835184172e-11  -7.4179409848817951e-10 8.1020932837627351e-11 8.9534125830036747e-11  -1.9091476645379357e-10 6.1437746691263822e-10 -1.7566328666023477e-10  -3.1359738580067182e-10 8.1216673362027197e-10 -2.2258741864928702e-10  -1.2689005476355735e-10 9.4529909970035171e-10 -2.9652162728253095e-10  -1.6372598435944699e-10 9.3992303948228181e-10 -2.8892872556180645e-10  -6.3444198434287307e-12 9.8433058056405131e-10 -3.2854675377994022e-10  4.0538846348902461e-10 5.7807143800043465e-10 -2.5728673621576657e-10  4.2457245375165354e-10 7.5697012198841630e-10 -3.2019730806347361e-10  -7.2168492363511927e-10 7.9633485424063682e-11 8.6836135849263420e-11  6.4961429915522621e-10 7.6796269913085588e-11 -1.2787305456669687e-10  6.3742278951580577e-10 -3.8850946219944829e-10 2.9824192000261515e-11  -2.1392834091008733e-10 -9.6682127078324228e-10 3.5732627072201290e-10  -4.3826795470202242e-10 -3.7833607383742626e-11 8.1591082244421936e-11  -7.0699643952772506e-10 -1.7198978609968370e-10 1.6876721149977643e-10  6.7451031272770460e-10 3.8723064602390970e-10 -2.3571883354178937e-10  1.6496735754499890e-10 -9.4861383602473545e-10 2.9164309550472278e-10  5.2122559348750148e-10 -6.3309354218511110e-10 1.2998251114907592e-10  4.4396338472843978e-10 -7.2064802854430254e-10 1.7144565701617017e-10  -4.3401427854469475e-10 7.6362795536233558e-10 -1.8739958620154680e-10  6.8150060025029892e-10 3.4562676207822177e-10 -2.2288958506181930e-10  6.1259501462932099e-10 5.7549861889613459e-10 -2.8901197461478925e-10  -6.9624911609069330e-10 8.7893242908607500e-11 8.0070653961055849e-11  -2.2522972660181008e-10 4.0970293004152955e-10 -1.0174361377468128e-10  -2.5281365147291689e-10 7.3595049366763068e-10 -2.0663017530587562e-10  6.7284828303993828e-10 -2.0334594216939578e-10 -3.7738027409319258e-11  -7.0230724925642127e-10 -4.1780321257348789e-11 1.2443686975171099e-10  -5.3625694563664432e-10 -6.6349605874067228e-10 3.0646728001490125e-10  1.7273351798626108e-10 -9.4984070641230547e-10 2.9083248524415252e-10  -2.3577594610829817e-10 -6.6822258678261696e-10 2.6079416174508578e-10  -3.6492680900027252e-10 8.1775822114700184e-10 -2.1638701046232906e-10  -5.9445861057849398e-10 1.9782105341550278e-10 2.7259659119159734e-11  4.1457490533516653e-10 -5.9888254083145925e-10 1.3530154524377992e-10  1.0487735386782630e-10 9.6650162204708022e-10 -3.4006921742007344e-10  -7.2062549263387862e-10 -2.7279760700819653e-10 2.0466010103856569e-10  5.8707076094508993e-10 -3.7032545316398657e-10 3.1655032577130678e-11  6.9737543266272793e-10 -1.2296426326049486e-10 -6.8506341458531913e-11  5.1940376311690483e-10 7.1974723392326159e-10 -3.2264920195292439e-10  -3.8681220617555195e-10 -8.7743954207724236e-10 3.5459091227545380e-10  4.1282477410206680e-10 -1.3104425934622195e-11 -6.0536159970768392e-11  -3.9037794977563312e-10 -8.6209515802522778e-10 3.5001452949336623e-10  1.9518821671463008e-10 9.6993262499008726e-10 -3.5542073378003558e-10  -5.9286455025867950e-10 4.8353977160516443e-10 -6.8646942233571231e-11  -6.6279182472109228e-10 2.9544852969023726e-10 5.3214157411522780e-12  2.9799305246100497e-10 -8.7418065768344111e-10 2.4580312535942226e-10  6.0893604539713234e-10 3.0094980501421897e-10 -1.9652021054541187e-10  4.0749109136666367e-10 -3.5616065903990819e-10 5.5154612391457859e-11  8.9944305220407585e-12 5.6384483877309536e-10 -1.9018440972038921e-10  6.8521631676288418e-10 3.9730143294877618e-10 -2.4077413015080617e-10  -3.5284233283590661e-10 -8.9895762763073434e-10 3.5645264865054547e-10  -7.0448132871370588e-10 5.5277266921627637e-11 9.2284821592792770e-11  2.2895939183410481e-10 8.6604636587916391e-10 -3.2595166774878778e-10  1.8575847661124825e-10 6.7641296469783053e-10 -2.5567016335992973e-10  7.1102346041773065e-10 3.2883343807987781e-10 -2.2191028891000832e-10  -4.9062228241518709e-10 6.7300625254750720e-10 -1.4815777443616267e-10  6.1426910745093352e-13 -6.7474340473123067e-14 -7.4014021154135223e-14  -4.3443220416860694e-10 4.6060445120962386e-10 -8.5884473360648571e-11  1.6288174420002066e-10 -7.0972042464906618e-10 2.1199184995234380e-10  5.0143375429748209e-10 2.9407186517614241e-10 -1.7731106133296446e-10  -3.2996087745401511e-10 -5.5823184205068690e-10 2.3878241585284480e-10  1.5240466100380598e-11 4.0358794196934010e-10 -1.3751421529819704e-10  9.9436054280780247e-11 7.3850136208096034e-10 -2.6288116611561621e-10  5.1524186601384013e-10 -1.2448676325332339e-10 -3.9353162997651966e-11  -3.0638370927843481e-10 -5.1233448832507390e-10 2.1970852591176281e-10  -5.0006525558826435e-12 3.9777428508386709e-10 -1.3238461378008499e-10  4.2930132459846349e-10 -3.8883888371114576e-10 6.2664957998748604e-11  -4.9853461694799557e-10 1.4706454898341479e-10 2.9166848938092567e-11  -6.2404446744179621e-10 -1.3060968902881194e-10 1.4186800437435957e-10  1.3270433004475429e-10 -2.9234641054129289e-10 7.7004887758145414e-11  -4.7855806232361992e-10 9.1342961581993941e-11 4.4680268958297981e-11  -1.6793665789350858e-11 -3.1121307310820925e-10 1.0683225360902766e-10  4.7536616506957877e-10 5.0866153029694302e-10 -2.4505408877386022e-10  -2.3949395950966468e-10 7.2748582566263996e-10 -2.0589102274271667e-10  4.7235129972078657e-11 -7.6010805315516678e-10 2.4704845614654097e-10  3.8729651160394422e-10 9.2001358245240363e-11 -9.1709843214188512e-11  6.4921446160366993e-10 -1.3335828017072355e-10 -5.7452428950777512e-11  3.5821929096807074e-10 -5.9321716852668943e-10 1.4226766766136057e-10  5.0847069629581689e-10 -5.6518558462861790e-10 1.0925348743976217e-10  2.9439231243789804e-10 7.0654925465535147e-10 -2.8284394076806775e-10  -2.1708803038766968e-10 -8.3759524343832415e-10 3.1455953824695087e-10  4.2581315167182355e-10 2.1447659818398364e-10 -1.3877075562572243e-10  -1.9336243914655444e-10 7.9392824159609099e-10 -2.3539024212288685e-10  8.9821468763358063e-13 -8.0168202899897985e-10 2.6825425998427724e-10  -5.3081423397083439e-10 -5.8294215438723385e-10 2.7864264419265381e-10  1.9053928010651278e-10 7.8937036893036906e-10 -2.9423908696006662e-10  -3.0650124681580474e-10 -1.7724468611689518e-10 1.0754213172623522e-10  -6.5057559405838294e-10 2.5695935113643988e-10 1.6286026086757310e-11  -6.4510533581828280e-10 2.3185699124738469e-10 2.3829770531525953e-11  -5.9509242264473639e-10 -3.3365093860278517e-10 2.0529110466080997e-10  5.1644142682730801e-10 6.5946088383878641e-10 -3.0200002983517100e-10  -6.3561456987131740e-10 -2.6887026267392760e-10 1.8997591591388439e-10  6.7045169586301428e-10 1.9951407663026713e-10 -1.7223482802185598e-10  -3.3859619759232847e-10 5.1706103946136858e-10 -1.1985736991790331e-10  3.3812923149641066e-10 -7.6905744067584110e-10 2.0429680640419404e-10  3.7440236843987494e-10 -1.0799831402289128e-10 -2.2724041733333857e-11  1.7853117711501699e-10 -3.3095631456384052e-10 8.2724100808807769e-11  </DataArray> 
</PointData> 
</Piece>
</UnstructuredGrid>
</VTKFile>