<?xml version="1.0"?>
<VTKFile type="UnstructuredGrid"  version="0.1"  >
<UnstructuredGrid>
<Piece  NumberOfPoints="201" NumberOfCells="657">
<Points>
<DataArray  type="Float64"  NumberOfComponents="3"  format="ascii">-2.184399634353526 11.68185775125699 199.6406685913969  0.7344520949935273 -11.94525706269815 -200.2659672276111  716.2567323558956 -1.966627507922899 -208.2810282386168  1322.164595021503 7.174869605405064 -201.0799428554391  1759.411794482686 13.20728300216587 -169.8658940997715  2019.977252396751 15.69991005769212 -104.8282187071938  2106.638303080436 16.30744278040465 -20.30959569496859  2020.182702330089 16.80118299378784 63.96846864279959  1759.340183122621 18.08790314635766 130.4232087298729  1321.38607552147 19.39999351604219 167.5811384031998  714.7408032888899 18.17814772141559 188.2041900187365  882.6912167178082 -543.1836952354813 -296.5227069554342  892.8250879274893 442.2246508450928 255.6121660165551  2004.188713138231 -457.2531622644976 -119.3412441329337  1501.01784658154 -505.352834797999 66.44277320663896  1856.425041646409 498.1668802192734 157.5683366482439  1851.348841373486 495.5515854057692 -69.53180679842018  999.3614784521592 491.7949205641365 -118.3051064733902  342.1455040614489 -478.5971073533204 100.2016327078073  1492.194936431265 -471.9941167888839 -256.6343921140806  1033.870652370617 -937.7902805100375 -327.5707075738979  1504.633113735571 -904.8848876770959 -268.6701076590116  1020.81808974214 -1295.51421963354 -312.8806077033582  1424.544592752069 -1205.809271658076 -232.9320035673693  884.3199115192105 -1529.701499294675 -261.4169215561502  1263.97115181351 -1370.014608244599 -174.8354599440971  654.1834642186107 -1632.390664706493 -196.5257932728917  968.966430692248 -1423.296018076791 -116.0844999846717  338.1882988587436 -1598.895017896484 -133.5356178357382  630.444581731418 -1315.497282117093 -63.46579961620449  -40.74036195109806 -1419.115562892076 -72.04975911155617  1494.768238236888 -1115.594397023669 -87.48752055005446  1503.410839306411 500.4870114421096 222.060651812356  1494.302772418456 939.3759077961574 242.5275723655469  1774.219897942756 895.844215366403 155.3279676535531  235.3199348436063 -1065.522206067326 -8.077351629810639  894.4893191103806 -925.1879209569726 7.880502650756405  1057.047018626875 906.9544858093782 300.2132050074995  994.268152088684 1297.719309584486 300.8411437053509  2008.79533197875 -445.3157174905524 -35.62235415804185  1761.781340442966 -933.9561927272628 -130.8619238793599  1851.709759877432 -466.6152004221021 -194.3467481724151  355.9110664586647 486.4658974304812 -109.1366273856508  1492.806856479358 481.6473048508944 -112.4176881785486  1486.395832462369 931.7119163739596 -18.15222181214001  425.2281179704282 -1554.748828733655 -324.544279117188  -325.4775170604427 -1624.486254564389 -132.4657226178857  443.3571005814259 -976.1851574133175 -351.3456311117807  1763.836673686269 906.0185852038062 31.52043526773085  1326.336548189596 1292.914481431058 78.47553237976973  967.3567029490556 1264.458687679919 36.33351620113825  752.175129429169 1554.002403380563 121.0360363966324  347.4798688552596 1466.352502603702 80.19204482905151  110.0792229941709 1670.957303278654 152.7222285550696  -324.3761266088695 1499.418655014445 99.87872991776015  -533.679176797188 1634.146641620308 168.2538610066479  -962.9808412865494 1401.139656563965 106.476469381821  -90.36585201686958 1730.038278426889 231.5142429057751  -706.935523827291 -1370.36341141809 -58.28435327126164  -947.9314590164662 -1503.551774644854 -117.935277847495  -1118.590195321978 1448.642641684726 171.7105013244132  -1492.527281992834 1135.694211150583 95.95359272087619  -1580.309892761296 1130.609297325676 165.6259942875926  -1866.740125055191 742.5176284384321 68.75701261484062  -1891.25688395308 704.7045026472455 149.2255406537481  -1685.118668194851 707.111209480777 -2.804974600926807  -1534.088548554666 1050.37994544507 242.4060172455735  -1988.703716685831 299.9205200584375 -19.52509455588758  -1774.123543843717 581.7692897716964 215.801229429119  -1735.986575354694 187.2307525465427 -100.7542135739166  -1920.419244885316 -247.9651280600814 -123.8017653962177  -1336.182449860434 890.4713595228343 297.3178138227564  -328.2571988979649 -747.0342901280311 59.55173303433182  -1303.741891339443 -1178.105485644124 -32.92039433552992  -1581.121187672228 -333.2618692878901 -194.6889151369475  -1673.14016736377 -748.0881561769656 -208.1648275698213  -2031.075562467293 185.4985887363862 116.0615765235355  -722.3148187420152 1174.969627283491 35.37542890078633  -1503.498263464879 377.747086594657 246.7494778037537  487.0270964286321 1207.435950055726 350.2762267167801  -1957.086564766453 -612.5675930902544 -102.534855234503  -1306.090929901394 107.5639196883175 -148.2577741084029  -1008.358903867726 690.091311078895 310.9809453359467  -1240.092489383442 -809.7755644761762 -277.763161766921  -1267.514232574508 -1178.975697318607 -269.559720526814  -1043.105844638406 1300.518600425215 309.7808424528421  -545.5209146855005 -1682.332982412425 -195.3460905766863  -1086.203988668532 114.329489986976 225.7432421028945  -1559.903059187401 -178.9233470442447 162.9559003827258  -753.6446270368248 -1188.65012514186 -333.2974234120156  -737.9542622658248 -1489.003774253563 -304.2230008641448  -668.9810423556829 -772.3448033430983 -311.5914148280892  1080.121152644193 1509.41942218693 172.6481901402925  -1450.60816141205 -1256.477592723476 -97.04137375930165  -1750.816020448465 -860.1090044357352 -8.151786185787499  397.9204764918346 1525.881933654993 328.2954382687334  -128.1254024608753 1383.752176618728 360.4046968617968  -38.87296565471029 1062.122411179376 358.5703697265882  -618.3796526725462 456.0127965460542 286.6259591046094  -1010.7654832755 -973.9134420413453 26.39571127311804  536.0591500741582 1176.418824231748 16.41805639164311  -1195.784792334066 -1409.22425097774 -228.4266071157724  -156.0990891097666 904.050427840342 -23.23485419861286  -375.3796667605758 381.5175064016403 -118.6834082133958  -221.6973459042067 1627.044795761467 312.1633857880338  -495.83925843383 -276.4113032609949 150.9563153709863  -171.2526202843089 -1447.951405970101 -352.6085040974423  -1040.923348091967 -450.1421602141642 125.6665795893214  -1538.992923935664 -719.0728422391528 61.14882489881874  -1879.161030709371 -353.4410821830102 92.45318649652116  -2023.454690336134 -453.2890467296916 4.820461708441861  -2096.699235435545 -73.26390150677553 -11.11358625644472  -857.2005195376743 758.9814272585363 -41.0604959268337  -1270.52035325848 831.5686535109661 -15.18545139852731  -197.5306255651113 -1643.677616412368 -306.2367475444102  -60.52611324247394 1307.231581876754 48.89648505866932  856.5123652330171 1541.21239141031 261.9619585097904  1842.941493632389 -442.8069545766965 34.14524133205026  108.3640505703411 -524.9238347844648 -293.3060530810185  315.7806301531826 -1690.754609263383 -266.5232503571937  -658.9783708009209 1135.130495492106 354.201587715642  2021.437338525948 460.0046230303022 -7.335377074694877  1362.16457914252 1282.234141991885 219.4810490341062  1595.717291450458 1164.118836508963 124.0628531781317  -1624.328117639476 -1059.723920044411 -186.3791200116371  -681.5984072661157 1627.728411760005 239.5562126325477  -1157.723767457512 1405.551376799946 243.7943778375926  -133.3870330903578 -1101.884944472298 -358.7615417242628  -542.0935867157892 -220.2275326077489 -229.6232999917155  -1115.481708531407 -342.3884496687664 -230.7016093202872  500.0368612199485 1691.104628973588 200.7191617010837  39.04045846275107 -1723.159157402202 -197.3075698363105  1182.771821718979 -1103.876442062261 -39.62917048421185  2023.831182309933 466.1655198975979 73.22146469242071  986.2390890364812 -467.1518209972855 93.67503553958819  -1788.970551538853 -951.6056324174114 -91.87488408365373  -412.4353012917561 -1177.928746802045 -18.64970095268888  1091.229662116558 872.7857164803206 -45.62978372552655  -1843.911050071467 128.1266374826706 173.1089011157461  474.8265864926762 -1315.510986083459 -358.3230238628937  562.2078858539352 877.7505270711741 327.1983501217869  314.606928118487 1684.11480832331 274.0914113201356  -1325.486586309181 1092.917848501986 49.51220622847534  1763.357755818377 -833.2343641720051 -196.7698311702439  -30.74114147294672 484.4155507028725 284.5712942174299  1617.468020650024 -813.9886480673161 -13.72919274330397  -2039.565522313424 404.7973579863497 65.27059697483423  -1099.67006388984 -1503.302633030514 -178.1988860288227  -679.6103480462627 -1632.545551514603 -249.620465424246  1896.520001985709 792.4286735480744 74.42572029478876  -494.1279556294232 888.4339513879326 343.5441984474051  641.3638531234992 807.455626661673 -55.06735028932583  -775.8376605668566 116.2388863381378 -161.7845259467838  -761.0262113620535 1521.426821370846 296.3630074312107  1796.035863706352 -773.5675032394716 -45.40043737086135  -161.1344463574906 -1724.513319165492 -250.4346256172838  -1416.369845461166 448.7762741564475 -80.56309171293626  -991.2976620705984 382.6354561964579 -108.3665046056559  -588.9233108914616 1411.117253281091 342.0854541309643  -1490.730922806127 -1254.303129788339 -156.8369515857636  -0.03197058081037215 0.02463540719672699 -0.05313903894104397  -735.3529455751426 -717.6486501148885 -107.8838387878122  1101.705341030274 289.0224265256123 32.83989938588432  -431.6059732391118 744.2061023298294 184.3716121172324  816.2865447625941 -519.5263836186689 -60.39110064318206  -545.8615356840804 67.11775496734538 -68.91591033961528  -1128.38791449457 129.4020609986025 38.39455984873683  228.0156381572292 844.71232038787 104.8971575814153  766.446445384673 -412.2680507532565 -147.8073210113236  -608.0783049614763 -81.70740496652591 82.3507798537053  581.4835239656734 639.0401809364995 178.1764638885491  -220.7940923379968 -724.6748034694388 -205.3045629573537  173.9537939087418 -1026.267399229698 -176.7382960683759  467.6117865955136 277.0641187676711 -56.452430841144
[...]
<PointData  Vectors="Forcing"> 
<DataArray  type="Float64"  Name="Forcing"  NumberOfComponents="3" format="ascii">-1.4619012995890624e-06 1.5293503367854642e-05 -7.0927571027524616e-05  1.1029326872118355e-06 -1.5225248435004527e-05 6.9149669714533082e-05  1.9955816846781717e-05 -1.3495548274971561e-05 6.4982374231830389e-05  3.4739237387624566e-05 -1.1108923232348902e-05 5.7526366132868433e-05  4.6104798397708383e-05 -4.6664069204307421e-06 2.3155806696918457e-05  4.6451264031947984e-05 -3.1281380745467970e-06 2.5326461327501415e-05  4.5334662903118584e-05 4.9246931380898657e-07 2.1903520973972466e-06  4.5953101438561610e-05 4.7060265884132452e-06 -2.2705275790739713e-05  4.3621292031466590e-05 8.9035242167778025e-06 -3.8434962576979460e-05  3.2838144700217133e-05 1.3616310668147088e-05 -6.2929841465512483e-05  1.7953376043732092e-05 1.4264178705090891e-05 -6.3070689049976708e-05  2.3802704799842220e-05 -2.0414179244764879e-05 3.4566550100688425e-05  2.1900936417076612e-05 2.1808577007727536e-05 -5.8811081857363955e-05  3.8639035528267916e-05 -6.3406016426943524e-06 7.8250532026906937e-06  3.8001939907239642e-05 -1.2607440816399841e-07 -5.4107704301318975e-05  4.2701386483343264e-05 1.5755051426552254e-05 -3.5039376148672093e-05  4.5737966662721670e-05 2.1372670790593871e-06 4.3217740821209095e-05  2.7624995562240132e-05 -1.8336803883996227e-06 6.3308634151223135e-05  8.1410818775925886e-06 1.7232680322241971e-06 -6.0669306869437120e-05  3.6821289148089558e-05 -1.8440353747196378e-05 4.9796057756065178e-05  2.5081346334794925e-05 -2.6263315983387421e-05 4.4049261220971711e-05  3.4110208228178404e-05 -2.0210595315381055e-05 3.1892757359597622e-05  2.4102023027649687e-05 -2.7214215140794740e-05 1.1207965490322947e-05  3.0082647325233710e-05 -1.8306772731483971e-05 2.1257752388084864e-06  1.9345803455932528e-05 -2.4567167637849207e-05 -3.7140657754134382e-06  2.7284484423318816e-05 -1.7117789336130592e-05 -2.7814933178006593e-05  1.3582900270709653e-05 -2.3004233503123875e-05 -3.0134995363919173e-05  2.3785025214246903e-05 -2.2886238077085299e-05 -3.8233112701177768e-05  7.5832207077383691e-06 -2.4281544193755736e-05 -4.7931068952927954e-05  1.5000539070299077e-05 -1.7259509178829625e-05 -5.7991654406281477e-05  -2.0887048210577003e-06 -1.9297853860573065e-05 -5.8692411967475487e-05  3.4651713197012167e-05 -1.2304714490345245e-05 -4.1733085985008733e-05  3.6336415889634863e-05 1.9314920293911209e-05 -4.6308218657788007e-05  3.4964200635492886e-05 2.3078784298715130e-05 -2.7378629961042286e-05  3.8610022131180058e-05 1.7789586254500412e-05 -1.6841141949675355e-05  4.9315780476243133e-06 -1.0457895618306657e-05 -6.9261855477643992e-05  2.2277375313809609e-05 -7.8178721906719701e-06 -6.4712665485905030e-05  2.5274568870317062e-05 2.6474906752681503e-05 -3.8559519012533141e-05  2.1930914945195028e-05 2.6774299904490380e-05 -2.3234597410325871e-05  4.1096957677504086e-05 -1.7952553334909005e-06 -2.6274011795500201e-05  3.6487438056015613e-05 -9.9504261364772112e-06 -1.8185322317668371e-05  4.1739176600764639e-05 -1.4175172737536013e-05 3.7404388561620619e-05  1.1189772316022413e-05 -4.2459722558039642e-06 7.6649887392517098e-05  3.8803551178950843e-05 -9.7304892237640307e-07 5.8042495414807713e-05  3.8134719669436787e-05 1.0372054059027825e-05 4.6362483705000642e-05  9.4435302331025191e-06 -3.0606187213318413e-05 1.1107618613880402e-05  -9.5127043849062001e-06 -2.3530767635221284e-05 -4.9769012378524716e-05  1.1445041488692161e-05 -2.9245916447542879e-05 4.3915579234199635e-05  4.2238323133358868e-05 1.1951717780113939e-05 3.0679889455374962e-05  3.2245740200623980e-05 1.7592482760867808e-05 3.9406425292479309e-05  2.5471790841955295e-05 1.6092874477656094e-05 5.3363630379488427e-05  1.8878288294094104e-05 2.3019331037260430e-05 4.3362049820921385e-05  1.0734085384518924e-05 2.0782161410882919e-05 5.6824876351310492e-05  3.8234163200778275e-06 2.4080061633637209e-05 4.6298328580573269e-05  -7.0330112533786444e-06 2.1678956868115147e-05 5.2795665663113130e-05  -1.1418442123190431e-05 2.2712236364657043e-05 3.8519852117563788e-05  -2.3241495986493877e-05 1.9180772786758724e-05 4.6945144176734799e-05  -1.0125189311338306e-06 2.4112630286280083e-05 1.9495877991151295e-05  -1.9151652572823337e-05 -1.9340682364101097e-05 -5.3674387225893380e-05  -2.4423050793563945e-05 -2.2941701154989577e-05 -3.8785165830519274e-05  -2.4651056948670407e-05 1.9606208843926770e-05 3.0001281165003988e-05  -3.4592500684475667e-05 1.3938474183426112e-05 3.8945617364659815e-05  -3.4679830751486792e-05 1.6774154386868726e-05 1.2094922973256400e-05  -4.0972586193168055e-05 6.6317254826524045e-06 2.5918153478294636e-05  -4.0715961338697421e-05 1.1264221656969996e-05 -5.4736821595929357e-06  -4.2002271965176862e-05 7.2475338870705768e-06 3.7970214311075583e-05  -3.3273686593161602e-05 2.0128984658944334e-05 -1.6405874275920292e-05  -4.5026443012576139e-05 -1.0056929897739355e-06 3.4195340556062341e-05  -4.1566304003031612e-05 1.5243333495316931e-05 -2.4070231210683366e-05  -4.2863112329494169e-05 -3.3921596315694383e-06 3.5748293067819304e-05  -4.4152944813096988e-05 -1.1530936474397240e-05 3.2896954938982088e-05  -3.1892583781359326e-05 2.2783239338078702e-05 -3.7036686682428383e-05  -9.6719033902851413e-06 -3.4820534273977949e-06 -6.8270481432039737e-05  -3.3774740589171998e-05 -1.5954068038678278e-05 -4.5627595409355793e-05  -3.8095727304712096e-05 -1.6904932476408903e-05 4.8352032269367226e-05  -3.7975785690426668e-05 -2.0916481473233686e-05 3.7751597881306920e-05  -4.3925045609809322e-05 6.4114447770273874e-06 -1.9346560361204511e-05  -1.7504199630692284e-05 1.5775663458185340e-05 5.3261179530170316e-05  -3.8702524391895883e-05 1.3792744035449189e-05 -2.7684573530725724e-05  1.0923557183995120e-05 3.1968664720486075e-05 -4.3126577373289505e-05  -4.0921438948671678e-05 -1.1975321137708344e-05 1.1412417924777899e-05  -3.2329125599394134e-05 -9.9803588393049849e-06 5.9756280076104156e-05  -2.5686931947748523e-05 2.4992320469664237e-05 -5.2227741092225374e-05  -3.1835889810232125e-05 -2.4358796485442301e-05 2.6756788148907536e-05  -2.9320005768356452e-05 -2.7258528899305925e-05 3.0238208388110889e-05  -2.1564380533178338e-05 2.5363432898281899e-05 -2.4407489940541545e-05  -1.3531758562796444e-05 -2.6704575935870776e-05 -2.8357344249933846e-05  -2.8606161971680473e-05 1.4657522384416311e-05 -5.9029569575968326e-05  -3.9461795326013679e-05 6.1726344602422218e-06 -5.2683226711432827e-05  -1.7731656463187995e-05 -3.0735777022876200e-05 3.9874603211401156e-05  -1.8832342415599166e-05 -3.3144617857397596e-05 2.2156183981918822e-06  -1.6428557247760948e-05 -2.8091521953957014e-05 5.1691556461120337e-05  2.3716636604835288e-05 2.0289576350940852e-05 1.8172058618829729e-05  -3.4997369680114683e-05 -1.8034718826392168e-05 -3.3773594068805877e-05  -4.2715952102603714e-05 -1.0716316377197676e-05 -3.4520774327616330e-05  9.1812914913484408e-06 3.1444190247783380e-05 -2.5291032810222325e-05  -3.4148781686598506e-06 3.1920585708375144e-05 -3.6910853650192008e-05  -1.3575119817670255e-06 3.1210396424919510e-05 -3.4252952953085261e-05  -1.6715497343884949e-05 2.1417194433482584e-05 -5.0135735590886529e-05  -2.7278667104558713e-05 -1.0542573699365873e-05 -5.6791333614063816e-05  1.5412746034826049e-05 1.4605077971979920e-05 6.2376871123000314e-05  -2.6344756896061330e-05 -2.5221620672574200e-05 1.1829069017598907e-05  -2.6408857942283659e-06 6.9477102009972129e-06 6.9680281163189231e-05  -8.3636340257287972e-06 -8.0190405982678173e-06 7.9214352026112203e-05  -4.7491075273131047e-06 2.7264650504462181e-05 -1.4608872267405003e-05  -1.4328921130061525e-05 7.9769527111294335e-06 -7.2895541971412504e-05  -3.8547214282825447e-06 -3.1932908346049255e-05 2.9473695974738426e-05  -2.7980898324677689e-05 1.7708273739821990e-06 -5.8849183065600255e-05  -3.9865518857651178e-05 -5.0195593943405446e-06 -5.6282487900537409e-05  -4.6880782019980244e-05 -1.5260131880094739e-06 -3.2181253398756414e-05  -4.5610124458199394e-05 -5.1070801834098737e-06 -1.7775556356027964e-05  -4.5791114427355187e-05 -3.4427441504117973e-06 1.1037430387776475e-05  -2.1252843272667131e-05 3.2631150137480557e-06 6.9536506657063492e-05  -3.1472047795273015e-05 6.3095940671284325e-06 5.5438497047587740e-05  -5.0995672548868378e-06 -2.8854702611059467e-05 1.6909582060246579e-05  -4.4826113809307025e-07 1.8846726720821075e-05 5.4391758786163576e-05  1.8507168768011658e-05 2.5671929855065611e-05 -9.3789572918646873e-06  4.3519045035894056e-05 -6.2727527999424835e-07 -3.9332550530164752e-05  3.8783751925535663e-06 -2.3607708655921914e-05 5.2653409921973595e-05  6.3884521728282403e-06 -2.5804368492202340e-05 -5.7173282675965395e-06  -1.5943877684844683e-05 3.0955887801033634e-05 -3.9526140358016673e-05  4.2957885004295626e-05 3.9268272872701533e-06 2.2760658918051980e-05  2.9468744058535115e-05 2.2367975823096130e-05 -1.3951506757045404e-05  3.4867269025628438e-05 1.6631879782240194e-05 9.5634388558654659e-06  -3.3745390490343819e-05 -1.8941694922987495e-05 1.5526341884447446e-05  -1.3235391300067160e-05 2.1541397961061148e-05 1.2170506301148202e-05  -2.3982696560448923e-05 2.1302019930809523e-05 4.9982373064365098e-07  -2.7876434420114612e-06 -3.1414684341448162e-05 4.1137619300178972e-05  -1.3163669765740670e-05 -1.8820397769987415e-05 6.7040795837962149e-05  -2.8105609667375066e-05 -1.7293768185667602e-05 4.3088522076757657e-05  1.2519664595579317e-05 2.5419771484670640e-05 2.7041119859418920e-05  -5.9658721835098847e-07 -2.5763390895974681e-05 -3.3403061797776117e-05  2.8519228355268884e-05 -1.2334615237205927e-05 -5.4446527108346676e-05  4.1176509031508249e-05 9.6016823324152094e-06 -1.2321880928942561e-05  2.4773864690341605e-05 2.7017659576173987e-06 -6.3000025432506510e-05  -3.8969793224441547e-05 -1.3532599101893920e-05 -1.4076740125398821e-05  -1.2333393262417247e-05 -1.3705316345620386e-05 -6.4408318561674771e-05  2.9782743069314762e-05 7.5843394328559711e-06 5.9625990461132814e-05  -4.4545227878062958e-05 9.7563475028764545e-06 -3.8451878497368412e-05  1.2079646443069673e-05 -3.1861804431867912e-05 1.3079701394142862e-05  1.3911335843625997e-05 2.9104423972885704e-05 -4.0800871583045959e-05  7.2470860114777348e-06 2.5871313397933002e-05 -6.8303773135444552e-07  -3.2221199889308626e-05 1.2142743436701044e-05 5.5381305738692979e-05  3.6681459226733060e-05 -1.3430930064408508e-05 1.1967927295476214e-05  -2.2980498325508435e-06 2.3193768085320145e-05 -5.7187607134465200e-05  3.9827295775900838e-05 -7.6249345204779429e-06 -4.8330789794023868e-05  -4.1795795095177247e-05 3.5430528181740570e-06 9.7510784639743996e-06  -2.5135476784667136e-05 -2.1219591227509561e-05 -2.0204118565850672e-05  -1.6258210660300865e-05 -2.9170431097506956e-05 -5.5352604328936500e-06  4.2451722523957009e-05 1.2427785014036114e-05 5.4087197318167796e-06  -1.3150982456941923e-05 2.9281114491736275e-05 -3.7149254495008325e-05  1.8295035371208309e-05 3.8522580766192034e-06 7.0594250549159933e-05  -1.8697155072463267e-05 -1.1447816847878443e-05 6.7710327930109947e-05  -1.6022603154791513e-05 2.5809584675777164e-05 -5.1037521094436962e-06  3.9056973514131111e-05 -5.4401715110271979e-06 -3.7308920135901591e-05  -4.2090383086153672e-06 -2.6618369166807077e-05 -1.6683044945485074e-05  -3.4995156823981237e-05 -4.3590540298122787e-06 7.0472639300899083e-05  -2.4939603357947842e-05 -5.8362426824775832e-06 6.9108266564459650e-05  -1.3007764488263724e-05 2.9223452031396195e-05 -2.8313047753895830e-05  -3.0605845498438314e-05 -1.5964629375257983e-05 -8.3835912481143436e-06  7.0063095348779432e-08 1.2059164748375223e-06 -2.4306987804236737e-06  -1.6574356604903465e-05 -1.0866133796534982e-05 -1.2813568240074118e-05  2.3719054404078432e-05 5.7448476880340675e-06 -1.3442103820476083e-07  -9.2685909330995066e-06 1.5313153557892714e-05 -1.7885131020137623e-05  1.8781031631073945e-05 -4.9536940482038318e-06 -2.8048844554003609e-05  -1.2977887246792986e-05 -7.6991760819506461e-06 4.5524825434149227e-05  -2.4980177150953379e-05 1.6244408782261632e-06 -6.5480914203628793e-07  6.1947728896392649e-06 1.0152452015249934e-05 3.7196176306956536e-05  1.7733735362578096e-05 -1.0942291484314485e-05 1.9120887000538408e-05  -1.5571496099607135e-05 6.0214890334778962e-06 -4.0903577204845231e-05  1.2557551302603683e-05 1.7493091680254520e-05 -3.5858848516826674e-05  -4.9592947881354383e-06 -1.8234456431679258e-05 1.9753418248076782e-05  3.5255571894493609e-06 -1.7773393491718492e-05 -1.1809436658318986e-05  1.2708875795387927e-05 -5.0274214468208855e-06 5.7938357243259287e-05  -5.5905936718675082e-06 -9.2450768603521558e-06 -4.6000407266542898e-05  9.6128037671886083e-06 8.9964132867372830e-06 -5.4259596491756531e-05  -1.7743249962989031e-05 1.0628355786962865e-05 2.7730616989584898e-05  -2.4397273884086509e-05 -9.5577111438058302e-06 1.8709417058653465e-05  2.6785773632602101e-05 8.3229110090403247e-06 -3.6078280247546404e-05  -4.4886424557001507e-06 1.8614696236665317e-05 -4.7006648668157095e-05  5.1157734297163360e-06 1.7476994042288482e-05 -9.0348769357763586e-06  2.4324870846393294e-05 5.2808100065726065e-06 4.3216090888492893e-05  2.2024612084956136e-05 1.3238773466700162e-05 1.1729226635279573e-05  -2.5172924183092216e-05 1.2830283514269289e-05 -3.3912588587050718e-05  2.6230046052715563e-05 -3.6570574674854736e-06 -9.1362307272470156e-07  -5.8743689648743113e-06 4.6488355775536132e-06 5.7909501478393578e-05  -2.8968690257009368e-05 -1.8073423049821654e-06 -3.1033692238074533e-05  2.9914783061903523e-05 -4.7117385459101196e-06 3.4528330149516082e-05  1.8478123294973862e-05 -1.1728052257109842e-05 -3.7683095035488793e-06  -2.7421949674781784e-05 -1.7104550369229804e-06 4.2888345171765932e-05  7.6161910750835716e-06 -1.6332754756517050e-05 4.4617721008863558e-05  -9.6572231001975001e-06 -1.9156416212694895e-05 8.6950243855374064e-06  -1.0865081389077725e-05 -1.5153229393590879e-05 -3.8617057466375808e-05  1.0944372557414971e-05 -1.2281160146093045e-05 -4.5004488942432038e-05  -2.2081237418567696e-05 1.1574535403937717e-05 4.5144216019864565e-06  9.2509512064892677e-06 -2.1457051479470367e-05 2.5942297500340894e-05  -5.3243539708967317e-06 1.5737628137944553e-05 2.3782036039747294e-05  -1.7541142909868642e-05 -1.8755660404563150e-05 4.8399191206270511e-05  2.6233510869268595e-05 1.2911390751859372e-05 -2.3842549708715863e-05  3.9552355146486406e-06 1.3575670679485923e-05 -1.5492855197006151e-05  1.2662954120758920e-05 8.4536483094374970e-07 2.9561245244584474e-05  </DataArray> 
</PointData> 
</Piece>
</UnstructuredGrid>
</VTKFile>