<?xml version="1.0"?>
<VTKFile type="UnstructuredGrid"  version="0.1"  >
<UnstructuredGrid>
<Piece  NumberOfPoints="201" NumberOfCells="657">
<Points>
<DataArray  type="Float64"  NumberOfComponents="3"  format="ascii">-143.1748938178364 -102.1113573783701 269.9074861719367  83.02786733224049 117.22681581737 -266.5673873189368  4985.148730900357 -563.0824704906308 -759.4811632744619  8303.248023129725 -976.0541358470691 -1117.295819372708  10082.0549180351 -1140.829075408512 -1264.264490270647  10984.26460536203 -1187.912410778978 -1149.409274400458  11270.40889992543 -1199.459816473395 -895.9438394051069  10997.32373470138 -1206.841498378589 -647.4680270167925  10086.96228108445 -1199.227420063575 -486.8593249492528  8250.655144191029 -1109.068366885914 -391.4630053587601  4830.867541769072 -749.0060388557721 -163.3109009090678  6354.081904037853 -2870.265416203374 -424.7945662273714  5449.100252320311 856.1463013306542 -595.2702491342055  11094.83207280977 -2912.978606908055 -727.6755438110339  9201.947150901451 -3092.098669096229 -11.74384694670533  10017.90423160057 593.3721125858989 -862.2270630470415  9981.007733978127 614.5260010976687 -1475.792899695993  6006.360632697058 1168.63788957663 -1321.539523004513  2828.319984288036 -2449.352527527278 506.7302102052679  9244.601088288226 -2879.223052611108 -829.3372947962401  7142.638624838941 -4384.183330425528 -239.4791371426667  9213.254002479232 -4408.30009429318 -478.1183678221093  6917.522813182311 -5518.50725876467 24.54955723063413  8696.579987104504 -5352.86065735122 -114.3546032659242  6131.48928003832 -6130.979449999712 347.9375521756915  7905.114986771508 -5809.435913748836 261.2638147676955  4921.687979855573 -6286.50785369619 709.5881655743897  6528.237878679624 -5870.136472613696 650.4179207868928  3239.566786630464 -5995.773855700141 1046.927993869122  4837.405083947121 -5411.695370925087 907.3062343025398  1014.282163910841 -5209.635674260213 1295.070061300947  9000.022068206401 -5092.297971434253 207.9079322701898  8592.793071765465 705.5984275129314 -780.9504027127614  7899.251014033125 2329.378063167861 -1033.068842966031  9167.743717065779 2044.734740610233 -1150.754749607994  2509.88454188897 -4413.034550876387 1016.237048346808  6306.100336831243 -4376.47907035708 568.7504848698311  5704.325025354319 2525.206994240427 -916.3925707690038  4737.185855630415 3915.754900810441 -1066.022964013999  11106.11449352597 -2876.474875392224 -478.1510429369764  10134.50115283087 -4532.550388783447 -218.4765962491028  10596.37557153807 -2938.237308194677 -879.7464055747296  1934.008215929295 1803.73194911386 -941.0813055558356  8522.242029524734 746.1587621502089 -1502.224712785347  7824.78569290781 2352.915137049304 -1643.775798982557  3798.376794310953 -5942.340158477758 519.4576629626069  -535.1941473468199 -5522.789204502956 1359.013744110245  3950.616667292939 -4174.23867346198 181.4358790006732  9084.935000670359 2100.168588720955 -1492.251850375467  6497.137433938124 3639.365964919832 -1571.15432622915  4636.465619979062 3858.552144112219 -1619.990023917016  3039.502266259543 4918.59786427298 -1476.963274327089  768.0847685065369 5053.598263447159 -1420.747308270187  -781.5494988065872 5829.431001848116 -1215.866162949538  -3200.175087563758 5727.331206506983 -1085.369168100244  -4345.276691317632 6232.642318750814 -850.726469564049  -6543.459591147471 5824.709316491745 -669.7967867197463  -1964.262342348157 6155.614313114121 -937.3642983819174  -3032.628171473746 -4444.493442740953 1565.102945996192  -4205.522586831846 -4624.388765242305 1522.109671685478  -7255.11127494724 6015.691719007303 -408.7114164269685  -8997.847594232857 5181.035130664539 -214.6508912563711  -9352.420236426913 5168.21198497815 55.91228849192582  -10572.84325757949 3919.448140221039 231.7261752646407  -10666.96845729618 3782.777976037796 531.857143569374  -9905.444942596425 3812.128390315953 -16.07724508250147  -9242.318762555684 4909.62131447933 313.1728448200668  -10984.92671950777 2366.193688245411 436.4150592516314  -10287.33208652015 3345.559622491516 782.5323311266935  -10073.52776129427 1968.568626110404 324.6517215297188  -10468.68050878612 340.5409045429915 713.8480819912539  -8554.727458948126 4349.247129935867 432.6072402024383  -1486.055408778678 -2791.660152908853 1122.127741994428  -6536.134854727098 -3325.942128229659 1646.45935116073  -9100.525077185574 -42.99627969986799 678.2422929993243  -8957.521386559163 -1569.283700759354 977.0821091627413  -11080.96033091847 1934.121557631888 977.4140261095262  -5368.460397833901 5065.083239904305 -806.3259968709308  -9260.401017921185 2542.181472004203 907.0224641067695  1820.068661837609 4105.706353478115 -830.9949628583361  -10222.53252902386 -994.2230227021953 1071.644321019085  -8218.129881963485 1586.272144967695 278.4042658743419  -7069.17586861888 3516.080949840744 386.6745490640727  -6822.681456967957 -2048.351291749117 914.3395634936439  -6384.405244044221 -3326.076539467884 1100.076693380335  -7037.710025043989 5565.039617241659 -24.61854840852521  -1745.773769827063 -5478.424728702073 1276.949518324445  -7205.752015920805 1302.893378419128 889.8229319900582  -9154.53671548676 432.0941099972399 1334.328810447497  -3520.538375181136 -3794.834531498702 941.09181237531  -3042.461226604548 -4755.57217242741 1064.481668137191  -3571.065907613284 -2378.882177457833 717.0092732968543  4922.679613813784 4486.249504265069 -1383.314388870207  -7146.933204046573 -3457.627764628249 1515.59103405259  -9096.522744459849 -1951.050738777943 1541.645081836931  969.0287821677172 5168.59008901654 -916.6376426688423  -2150.623674903139 5230.796057442773 -575.9898381593334  -1434.533574700383 4121.763335115264 -482.4436992324315  -4777.348828086654 2350.400735645301 310.6181253470392  -5305.058898881201 -2913.609009754938 1592.201924209918  2216.961587065598 4018.277835888588 -1467.11128734754  -5651.215280366901 -4130.175781042742 1247.608945089207  -1919.884011792341 3811.388744544743 -952.8404381576613  -2963.136220458081 2102.407557558879 -402.6050907438925  -2718.750427378679 5994.39999192534 -673.9909840099367  -3205.080499014959 -820.8822822348318 861.9032289818966  342.4140853519131 -5167.439167644926 773.9518297946629  -6262.222560137724 -985.9363509682455 1312.178492349589  -8380.246599360911 -1592.835532207716 1603.983158760987  -10197.91740125337 -97.68148035117962 1419.421475377287  -10614.48192650782 -418.2664846823461 1249.186551182025  -11172.82464142313 992.0278439285462 842.4530888009715  -6107.454019538086 3815.566925380579 -470.0565883076181  -8166.576249601038 4194.912834155429 -322.5645101723585  265.4992426857326 -5692.984651516063 903.2585387747996  -1579.258573823356 4971.730567592597 -1212.825940914439  3640.58988297058 4780.99969898548 -1161.729426649452  10538.69563932632 -2884.05283249234 -241.5652555802221  1429.634342040637 -2164.586700342068 110.9195044543985  3161.73628982685 -6225.283707074778 739.1171726218045  -5205.753913517067 4865.813059405595 -123.7172130466288  10634.19312024399 433.9856619772852 -1262.718518133498  6707.687587823926 3569.06275065874 -1219.125136935417  7983.86599307326 3042.283172843869 -1381.824659704319  -8270.220648777567 -2688.047967912531 1196.373732629159  -5122.232581668688 6310.766239746993 -569.3743127031194  -7470.621897837233 5906.60294692851 -157.0566015803542  338.9244695236887 -4106.440721952672 619.1805304854086  -3446.663227170723 -253.3562981283441 252.0430471879512  -6837.476456422991 -297.941858751316 589.5807996253507  1448.31100691878 5533.491910558413 -1242.581057178003  1610.316610841259 -6098.100148942822 1059.278661289294  7648.762749154514 -5012.053739707933 504.1617977843035  10643.83823677931 450.5160352504374 -1027.675960208175  6714.131304177498 -2822.378225654468 168.2983369725233  -9143.086105113411 -2232.251231773278 1356.115681498083  -1482.112622844995 -4150.867384540499 1413.255400662315  5917.169346957374 2468.484231876833 -1572.073687907591  -10431.85664308326 1691.055747178065 1150.830741970807  4131.118907863353 -5295.111986133198 342.3179381207809  2713.140026384577 2878.600722186151 -730.8134590844081  360.9901810823675 5685.808415578805 -1007.39439107733  -8329.511459805455 5033.401693350983 -397.0718407642538  10199.76013714468 -4197.083686708522 -504.5549723512216  -877.6303643908179 1918.569085534337 -126.034720949303  9617.430596170474 -4152.869788152167 92.02392202458111  -11165.07983471163 2732.938827869958 600.1658379381097  -5011.052299281312 -4497.166917392739 1379.926871128271  -2550.831745164173 -5220.922738620406 1175.933945672276  9793.784713637504 1642.183995224892 -1279.412800478474  -4238.483333766121 3905.984285310425 -87.02932855047867  3389.395201534233 2677.083458530918 -1344.006703717629  -5332.633024278114 1359.975662295518 66.26413704529763  -5582.543243039937 6069.477307890802 -340.6426524858606  10306.74395118843 -4009.074753572282 -114.5445554793444  497.1447798532187 -5940.187246280608 1016.903226506691  -8861.762744382038 2911.552365720925 21.92531486648718  -6714.585737613053 2524.078691649559 -94.42587745196694  -4755.568057325811 5657.643392379937 -320.7462168081988  -7347.153423112393 -3417.638058647128 1356.229613530889  -21.85707155340359 8.537306832149447 1.343679395348206  -4095.048591912096 -2196.147151197442 1028.417296061384  6865.390893062349 194.9034460088962 -885.455070630354  -3722.584337230586 3393.611819222661 -272.8360261896855  5888.80432263808 -2870.188200781329 21.70809941928775  -3869.750177527985 901.2695062707998 154.5262755229907  -7410.133144312914 1504.50036112225 552.3606796572694  607.037846427338 3192.596488139666 -895.924835623802  5605.807978059935 -2359.536612153671 -226.3958554552625  -4158.523541701167 183.9598703495816 597.4437738659736  3218.616381699523 1995.263642420101 -777.1521681514939  -680.2767811173471 -2687.319082922509 623.2416267838986  2208.616346011833 -4191.60673492946 703.1176627500332  2971.752930346887 774.9200320911384 -692.6374923336244  -
[...]
<PointData  Scalars="Pressure"> 
<DataArray  type="Float64"  Name="Pressure"  format="ascii">-6.1985576403394249e-01  -6.1626111389209737e-01  -5.1616065092309471e-01  -3.3060647410238431e-01  -5.0923944327000294e-02  2.0198723124651655e-02  3.6423591629197324e-02  8.0841340760323278e-03  -5.7211089028427302e-02  -3.3187150086502015e-01  -5.4777185328099087e-01  -3.8010817757383281e-01  -4.7962828445976502e-01  8.9326955480260872e-03  -2.0782917028167647e-01  -6.7314606597079399e-02  -8.6604346910315599e-02  -3.9283178842995903e-01  -5.3098865875373180e-01  -1.9466948128122227e-01  -2.5940095161090965e-01  -1.1449919751607732e-01  -1.8440877894482824e-01  -8.6215946531335338e-02  -1.5754309540729156e-01  -9.3792695189832173e-02  -1.9530013380341918e-01  -1.6300951284436374e-01  -2.6448568337121919e-01  -2.7909310879814603e-01  -3.2783759870949275e-01  -6.9122447296996195e-02  -2.6572836163321450e-01  -2.3183704207903094e-01  -1.2804554283321590e-01  -4.0235609978652848e-01  -3.1616962291473483e-01  -3.5435016060869223e-01  -3.1955280869632485e-01  1.9401500899627760e-02  -2.0020181493195937e-02  -4.9401352051472655e-02  -5.4910766613201012e-01  -2.4787399259821039e-01  -2.0241493720719644e-01  -2.7112654154931304e-01  -3.1396421671815966e-01  -3.9938408457835672e-01  -1.2180429635773002e-01  -2.2417049200583611e-01  -3.1787403507351902e-01  -2.9393065727492640e-01  -3.2919612475346510e-01  -2.9241761323925120e-01  -2.8349652758364857e-01  -2.1864867758219436e-01  -1.5979689483298865e-01  -2.7501222860118402e-01  -3.2118255772629140e-01  -2.6113463478061155e-01  -1.2118544554188300e-01  -4.1956939213641672e-02  -2.2357451193836145e-02  2.0132875235003116e-02  2.8284976801642481e-02  -2.5999044500892177e-02  -7.3002026798631645e-03  1.8775707614120649e-02  -4.1035329916341727e-02  -4.6738833652965564e-02  -4.2368116674662712e-02  -1.2631635016824536e-01  -5.1532167288684716e-01  -2.4930927216808743e-01  -2.6275623832298944e-01  -1.9756035891423701e-01  4.4790573815201636e-02  -2.8262994601348962e-01  -1.3911514903032093e-01  -4.0229211206855292e-01  -2.4703737552852465e-02  -3.5031739628165909e-01  -3.5584965250466793e-01  -3.3038136945376073e-01  -2.6665113661044493e-01  -2.1303010348292181e-01  -3.0168297685375600e-01  -4.1403494941419666e-01  -2.2365477634564881e-01  -3.7434678020601941e-01  -3.1504408211847990e-01  -4.5601787082851086e-01  -2.6438411451797678e-01  -2.1846136240564015e-01  -1.1684463035607083e-01  -3.4666474149498078e-01  -3.6630406091527357e-01  -4.3569450824554168e-01  -4.7676999464253567e-01  -3.2796350132952867e-01  -3.8952748797926245e-01  -2.5148409808100147e-01  -4.6435230407182576e-01  -5.3002466567633533e-01  -2.9408445635522273e-01  -5.6273641754487758e-01  -3.5762503836616694e-01  -3.8576756931494405e-01  -2.4937435367241567e-01  -2.7560639331308440e-02  2.6844605740122080e-03  4.7175120067022097e-02  -3.5233245062457397e-01  -2.1947592865364052e-01  -3.0991063511084566e-01  -3.6578559147067014e-01  -3.0168992804942807e-01  -5.2170749010606941e-02  -5.9638406302997249e-01  -2.5823703789480901e-01  -3.3920007833231935e-01  5.1892896021981591e-03  -2.2654489947286713e-01  -1.5245805715733940e-01  -1.8765305338334404e-01  -1.8914696603159142e-01  -1.3065347463533569e-01  -4.8660646482886888e-01  -5.6579513852566110e-01  -4.3142609131001952e-01  -2.9309486076280089e-01  -2.6303532171443572e-01  -1.3500086686719764e-01  -1.6950655497382103e-02  -3.5876630683640703e-01  -1.3022863184558703e-01  -4.0843224996095878e-01  -3.3100795235439506e-01  -6.6219106090600124e-03  -3.0589033670362420e-01  -4.9281123572422592e-01  -3.0348802812399872e-01  -1.2537769625278400e-01  -4.4874875802939661e-02  -5.8452274057085474e-01  -8.0546632928683054e-02  5.8755842511146260e-02  -2.2692913540379270e-01  -2.9564656413146073e-01  -8.8495604909765532e-02  -4.1753282420635629e-01  -4.5177063781616617e-01  -4.8845392051186276e-01  -1.8261535511058960e-01  -4.1364821682504840e-02  -2.6857966404874978e-01  -2.3654639902670044e-01  -3.7448213353472981e-01  -2.3707395011181145e-01  -2.2608374068130055e-01  -6.3677625790310455e-01  -4.3176934845999171e-01  -4.1244616097772646e-01  -4.5474664425602779e-01  -4.2853306821844478e-01  -5.5446658902060142e-01  -3.8445357851310147e-01  -4.7936929273463391e-01  -4.6303259049129114e-01  -5.3968969368434627e-01  -5.0819684421024591e-01  -5.3024728331354609e-01  -4.3541595840127595e-01  -5.7613935356010915e-01  -5.1455605396873938e-01  -5.9471439900150502e-01  -3.8461710611418659e-01  -4.0392007220836473e-01  -3.9855376100622747e-01  -5.5685259862923953e-01  -4.1363400495760211e-01  -3.9405299570852803e-01  -3.6561927877258682e-01  -3.5931683658684649e-01  -2.2720452166576607e-01  -4.8924465714914833e-01  -3.2182666194817616e-01  -3.1410959973528119e-01  -2.7213114968008995e-01  -3.2249149361901286e-01  -5.8441533885984875e-01  -4.1324212926820841e-01  -3.9227904764737104e-01  -3.6662880788082597e-01  -2.3971553768644982e-01  -3.9289110503397440e-01  -3.5449210617182059e-01  -4.7788709678844143e-01  -3.2530426269306489e-01  -5.6178637524232966e-01  -5.5342390312155765e-01  </DataArray> 
</PointData> 
</Piece>
</UnstructuredGrid>
</VTKFile>