<?xml version="1.0"?>
<VTKFile type="UnstructuredGrid"  version="0.1"  >
<UnstructuredGrid>
<Piece  NumberOfPoints="201" NumberOfCells="657">
<Points>
<DataArray  type="Float64"  NumberOfComponents="3"  format="ascii">-121.7450662459291 -11.40608931734651 14346.68363194639  121.9674387244986 11.97125224695167 -14332.29286714586  5098.314094459315 5.917339896323455 -13619.6639545049  9310.47109669066 -10.90116772335516 -11486.49573639333  12707.80227877581 -4.268075937811194 -8158.213038609552  15003.22271574926 5.484489551642478 -4184.63975917675  15733.114918076 9.159228597391762 141.4683874075542  14894.77014061004 -16.97854936884693 4493.5423502237  12800.5518255336 -3.493717713302483 8448.584736845381  9359.392983309153 10.23666648877932 11559.6452990635  4762.140276999961 8.063827639430601 13613.75579369973  6541.873119258563 -206.3632261169543 -12773.81381834514  6218.06288728615 159.4193002151552 13010.09510192606  15321.31130326094 -189.6155035331267 -2008.100260366783  11237.99370366808 -184.0223352669323 9820.776404760463  13898.39291088241 184.6636590754797 6237.811335743005  13934.17109333328 191.3920032755601 -5976.339233309785  7206.434314729038 185.4474833125056 -12530.33737549407  2280.606130926941 -189.7406130598577 13955.22361971601  10958.19454116906 -187.4024332919843 -9799.353494236539  8245.070533169885 -259.8682373529405 -11002.51493876929  12160.10383817408 -242.1315180982886 -7409.168164244262  9331.384836471096 -175.206243370834 -8111.335503292501  12868.95443994895 -209.7117531009312 -3720.94162240716  9312.086158060736 -81.77274534153803 -3754.918415234029  12172.72358464762 -155.5402422960618 1022.049143261536  7255.322520854146 -54.144232317731 1930.132985002739  9413.274997476543 -128.5455454404931 6392.801942616224  3566.459545647902 -67.69384813314122 7409.48515438472  5638.324084225989 -164.5869154060086 10511.15588557739  -323.2344925277258 -146.8365467534285 11020.03043187096  12901.79346868657 -230.7292180191474 4827.49528205502  11111.50834576802 176.6052865770869 9990.714121577405  11993.56439929014 235.7180318850523 7967.463073930452  14222.09581001419 242.7098495682027 3603.588169734691  1761.424261180085 -239.6006429217334 12967.40499771427  7043.357809378256 -217.5861904424598 11825.31146396232  8093.762909924999 239.0242419403592 11322.5976658521  8728.497286787135 177.662423014175 8971.102750187501  15296.91003573579 -188.4346067164732 2222.44281130512  14659.93054202629 -252.8293270852863 363.8078747550459  14075.91884967044 -191.6046534405618 -5806.59925697825  2642.737798974782 185.8596407542105 -13962.77720041022  10837.54484211858 174.3395671459572 -9925.336403364236  11794.75423039952 250.8471763061869 -7824.775683822409  4533.266936609057 -76.46266813193763 -8053.273584973131  -3343.923912246066 -63.9331958272888 7030.969828559506  3748.397936204224 -220.4621871785544 -13013.01219107842  14307.8576973663 273.0529773093867 -3450.225577490256  12038.93604892721 185.6119404730287 -4745.155861663878  8411.866883251078 202.7940868505484 -9396.375746118616  7561.005661821472 83.18416589196627 -5960.320628489495  3237.155402166718 121.0326009594272 -10009.76104239562  1037.662651327495 49.25838914252769 -5952.22485942938  -3231.303308912096 98.76407629627926 -9495.074629858595  -5849.323368647319 56.20609254988555 -4456.785707509704  -9204.84486451456 136.270547053648 -7065.300418435343  -1218.310936118427 26.87964119606538 437.3188181260753  -6377.960087611913 -165.8854540969426 9828.498044656266  -9291.36581319152 -110.1225868737559 5164.099801134921  -11136.32538681492 114.845757103397 -2041.964903014844  -13006.63082582562 222.3982609917842 -4424.956048042113  -13846.91024136317 225.3115666059852 210.3901843651683  -14824.78257900047 255.2056356237228 -2578.2891560625  -14900.88755480087 250.6508463824694 2076.622973460084  -13087.60095921174 262.7093774405006 -6979.973694983099  -13030.04996809288 251.407518427678 5134.843582433049  -14923.93341390699 142.3560985669871 -4343.476259046566  -13553.71897214634 237.8214843927749 6391.314097076574  -12593.13898584358 89.0851274115068 -8495.552219274045  -14188.34258274335 -94.28271349517509 -6082.706904469867  -10704.2418349865 231.7506082189149 9310.126681351332  -2481.029747763819 -245.6565160743385 13598.07168606942  -11148.15511608194 -211.4729945617326 7420.10225002062  -11368.92572700735 -132.7558822430797 -9762.61155775177  -12942.99197952665 -244.9506626747486 -7257.788696007205  -15114.05986205227 101.0967951996244 3465.853489845112  -6130.069020938471 205.8647074714868 -11295.28852935211  -11026.70135820232 135.3075644107268 9989.271707163061  3835.115963576791 209.5730091598214 11963.55012821834  -15098.01854463704 -203.5764831660472 -2660.235449657009  -9157.314525876889 58.60395607749957 -11677.61997866882  -7601.32508031232 227.1709850700166 12042.21151408988  -9359.009347238421 -247.7394799189428 -10747.92771138145  -10819.60356786386 -205.4943502858434 -7989.257758177983  -9567.178168050123 168.8459336398742 7891.813758904913  -5914.787952787043 -37.4535731082284 1309.642106215211  -7652.917802219396 50.36204978771801 12538.16386271363  -11256.14053786873 -76.25046162266622 9931.309881169205  -6176.669881789043 -203.1143492067122 -11340.57632622666  -6983.713071383829 -114.2383197568737 -7920.844508346355  -4892.170885716356 -234.8958870943383 -13115.36718558883  10810.11709022692 95.24159385393469 -441.4595165548475  -12998.8317702802 -183.2039797674182 2896.886434946441  -13917.90890982844 -275.2687636644903 4630.567732191025  3655.196295919553 98.53709928660969 9087.755607890113  -1431.574293129424 135.104111428651 11345.80596928519  -537.0157551582531 245.9234829743605 13074.29409637828  -4554.008227922956 170.1858119032856 13500.91322716508  -7926.412800219606 -244.7313832956429 11215.41717915017  4484.350636001057 206.4441789789843 -12024.82144921379  -11253.18305928162 -133.0220074615004 -4095.361339113223  -1187.408578859976 248.2280882564928 -13416.62417376093  -2646.115670384315 147.9814344315581 -13988.29265264744  -2550.938525109962 58.34211298573769 7082.365029331138  -3592.915350881465 -118.7396775312626 13863.48795108571  -1360.102912403567 -130.5454628711079 -10646.99005085953  -7431.555519506459 -168.8480997425949 12457.60579212242  -11769.03826215069 -233.0650841120002 8720.507749044284  -13903.16371429155 -155.3400919798048 6226.780580780711  -15295.50754753032 -167.7276894485363 1850.711442772889  -15642.1851127262 -12.11705217218745 -1382.945080309139  -6368.92373026694 231.0926979261403 -12550.70254526763  -9877.773181203433 243.9817322124144 -10271.14341855327  -1884.133280937522 -55.66902565705844 -6870.334266045923  -524.1856791833535 185.4773188166398 -11873.96281898587  8473.661083066789 93.32910089159381 5179.553349546822  13849.30830914067 -182.4824067467843 6499.401342253386  968.4530597362564 -166.7380463497468 -14095.56844723418  3745.162893943041 -32.33576204078555 -3353.18566394897  -5671.346703929003 223.5935655639906 11701.60184982203  15355.30869803217 197.6077698992103 -2054.510761788724  12195.44950697226 172.8710263395379 4556.012399100688  13860.26163637199 229.0258463058181 -54.67005476746665  -13631.97061246215 -230.1406103050537 -4206.482392057549  -7522.591007110304 56.04791150641783 1562.282952717649  -11338.03377147111 124.6092899613917 3341.619682492066  -909.8441554525377 -227.9606315593193 -12958.60699514762  -3735.694296294037 -74.74540350004759 -13910.98910170088  -7775.917417088506 -128.0878354174117 -12379.26598924726  5478.465828693749 38.91042631509504 -1069.156984501915  614.390138894461 -26.28376826093192 2557.679054346799  9997.42492573263 -219.3315558104792 9009.982679690002  15308.07151272439 170.0376360989542 2052.267998177975  7063.324099619336 -157.6522724716401 12579.64988656723  -14652.7622832362 -246.8045662231821 215.4042076527136  -3440.403838835239 -232.1472927143271 12198.69292769877  8353.745968069628 259.9918052532986 -11187.96066431561  -13504.57057479855 66.66015543074846 7115.98749498393  4482.244724911319 -163.4994668627591 -11121.73804502952  4001.301450436969 237.739826516218 13066.4168237351  3285.922265789077 39.35854477780974 4657.064149335743  -11279.87043894555 217.1750626146336 -7820.161251391341  14294.93987716703 -263.1073270568307 -3805.038159134614  -397.8603050707952 167.0704902785549 14129.97752614927  12829.30877279444 -245.3298178207847 7095.301613651127  -15530.27384404417 175.995222923669 -464.1523740508922  -10883.89231125622 -107.9250714324618 67.589259166405  -7100.56633453505 -56.42582461228339 -3519.221138251174  15045.28779545434 255.162829234243 12.6115682876966  -3987.23775000474 258.178083204162 13011.24073258174  4933.057828381775 241.6958777218197 -13064.92412388215  -5326.377049037957 55.73468518516879 -13524.5839428847  -7880.468352799773 91.9967560312643 6233.13306402593  14246.48149378863 -257.1534613546736 4281.941452326239  -1646.842336267163 -26.95949726201718 -2304.733042683507  -10317.53988052046 180.0347315022049 -10610.83664651438  -6977.599099132284 154.2382224292263 -12757.92159758922  -5722.382672608252 146.6370726539902 9621.304731639146  -13231.36185765791 -205.0344914865772 -1100.453990728113  -53.8463382707247 1.436016418392231 -1.295093865857392  -7311.787365908052 -20.86011039177902 533.3022751445826  10405.81510198818 14.61949873642988 10.18402406988622  -4527.283320416302 22.34002177062892 4658.06345220148  7920.799588029438 -23.71002168954565 4134.419895618577  -4927.09708976912 5.495480096723282 -8704.89575678664  -10607.54086933786 5.004862058070675 -88.68766780520443  2229.099611663517 21.97945223276886 -4227.190440657485  7418.654210537204 -18.70306447470833 -5932.510397341319  -5647.613536542964 -8.217394017616721 8391.826682941939  5407.610228190789 31.63276207497591 7077.836949648929  -1996.301783014197 -28.48646704436194 -7793.500124279909  2024.857689864548 -11.18012208390609 67.34002096463423  4245.271840988232 22.19491821116032 -9453.647778537721  -1835.01355073
[...]
<PointData  Vectors="Coriolis"> 
<DataArray  type="Float64"  Name="Coriolis"  NumberOfComponents="3" format="ascii">-3.2081470212219049e-06 0.0000000000000000e+00 -8.1534315332625337e-08  3.2026938343397285e-06 0.0000000000000000e+00 7.5624440377445780e-08  3.0494721116288859e-06 0.0000000000000000e+00 1.3040912143426683e-06  2.5243176642995670e-06 0.0000000000000000e+00 2.2280119149133483e-06  1.7194002446575778e-06 0.0000000000000000e+00 3.0126180358248933e-06  8.3341666482662901e-07 0.0000000000000000e+00 3.6040319665787127e-06  -7.2095368540520320e-08 0.0000000000000000e+00 3.7589015188924753e-06  -1.0167064317229397e-06 0.0000000000000000e+00 3.5342995251227542e-06  -1.8986890255473896e-06 0.0000000000000000e+00 3.0986410554802548e-06  -2.5686018641618005e-06 0.0000000000000000e+00 2.2901422584566385e-06  -3.0324567765120277e-06 0.0000000000000000e+00 1.1006704325913357e-06  2.9208302703130159e-06 0.0000000000000000e+00 1.6713210951604598e-06  -2.9523904536967510e-06 0.0000000000000000e+00 1.5081890728391661e-06  3.9454037361427937e-07 0.0000000000000000e+00 3.7425686098889309e-06  -2.2508054907159731e-06 0.0000000000000000e+00 2.8184503802708754e-06  -1.4453182795147856e-06 0.0000000000000000e+00 3.3781968754057947e-06  1.2453730377326139e-06 0.0000000000000000e+00 3.4117662877489341e-06  2.8471975772887735e-06 0.0000000000000000e+00 1.8116405809371585e-06  -3.1907362792613967e-06 0.0000000000000000e+00 4.9605901257517473e-07  2.1701707798508285e-06 0.0000000000000000e+00 2.6410896497090882e-06  2.6609981903683581e-06 0.0000000000000000e+00 2.1427390628375816e-06  1.7226502132606508e-06 0.0000000000000000e+00 3.1440353575945728e-06  2.1661231861141643e-06 0.0000000000000000e+00 2.6510835943731260e-06  9.0507410853920383e-07 0.0000000000000000e+00 3.6189949615720177e-06  1.0970771838906697e-06 0.0000000000000000e+00 2.9518091520829406e-06  -3.1748809172550720e-07 0.0000000000000000e+00 3.5789805150466826e-06  -6.3015254241625128e-07 0.0000000000000000e+00 2.3684028294028235e-06  -1.8479869207640789e-06 0.0000000000000000e+00 2.7915354378736869e-06  -2.3137678808354220e-06 0.0000000000000000e+00 1.0941628007476311e-06  -2.8648432163378913e-06 0.0000000000000000e+00 1.5750711105122296e-06  -3.1300072507005398e-06 0.0000000000000000e+00 -1.3572191963629120e-07  -1.2624917169592129e-06 0.0000000000000000e+00 3.4845669022219981e-06  -2.2855845785205593e-06 0.0000000000000000e+00 2.7784106525907323e-06  -1.9715786078777679e-06 0.0000000000000000e+00 3.1480310780761631e-06  -8.8664474767113906e-07 0.0000000000000000e+00 3.6277293868235152e-06  -3.2837736391168113e-06 0.0000000000000000e+00 3.9380662285939723e-07  -2.8956506624773306e-06 0.0000000000000000e+00 1.8367292237732271e-06  -2.7416281375208042e-06 0.0000000000000000e+00 2.0872333549075236e-06  -2.4296162048191722e-06 0.0000000000000000e+00 2.4674812867272318e-06  -5.1829039513838006e-07 0.0000000000000000e+00 3.7120678694682011e-06  -1.1430441719261232e-07 0.0000000000000000e+00 3.8346127121804231e-06  1.2030058102570000e-06 0.0000000000000000e+00 3.4617234471669983e-06  3.2030860756432159e-06 0.0000000000000000e+00 7.2172105420669334e-07  2.1951816082367308e-06 0.0000000000000000e+00 2.6132240185543694e-06  1.8267349502120943e-06 0.0000000000000000e+00 3.0360378344712015e-06  2.4484450904307582e-06 0.0000000000000000e+00 1.4302699833629692e-06  -2.2052211198969741e-06 0.0000000000000000e+00 -1.1033540968171964e-06  3.2346108763391566e-06 0.0000000000000000e+00 1.0553397240761368e-06  7.5321644262620529e-07 0.0000000000000000e+00 3.7144296031561055e-06  1.2047133840300622e-06 0.0000000000000000e+00 3.4602750177949583e-06  2.4838555172050374e-06 0.0000000000000000e+00 2.3691623456888781e-06  1.7775952248596582e-06 0.0000000000000000e+00 2.3776072938526996e-06  2.8845971092824676e-06 0.0000000000000000e+00 9.9311146693965891e-07  1.9349977071971519e-06 0.0000000000000000e+00 3.3840952813190501e-07  2.7956113625462442e-06 0.0000000000000000e+00 -9.6365720289335776e-07  1.4344096251890788e-06 0.0000000000000000e+00 -1.8882950546042636e-06  2.0268300437513348e-06 0.0000000000000000e+00 -2.7097665774728638e-06  -1.5197793909172777e-07 0.0000000000000000e+00 -4.2614003653072289e-07  -2.7083469823702224e-06 0.0000000000000000e+00 -1.8668741548358550e-06  -1.5044259928782755e-06 0.0000000000000000e+00 -2.8397086014702247e-06  6.2882864033811495e-07 0.0000000000000000e+00 -3.3637867671565171e-06  1.1803743068773099e-06 0.0000000000000000e+00 -3.5517725514251933e-06  9.9210903405338822e-09 0.0000000000000000e+00 -3.7766024107578963e-06  6.6029606094079955e-07 0.0000000000000000e+00 -3.7462171203693458e-06  -4.1126117965281378e-07 0.0000000000000000e+00 -3.7217625197319989e-06  1.6448607431806047e-06 0.0000000000000000e+00 -3.2888991607734655e-06  -1.2416632271526879e-06 0.0000000000000000e+00 -3.4799613577340591e-06  1.0151369772798476e-06 0.0000000000000000e+00 -3.6188484198562245e-06  -1.4060884083329727e-06 0.0000000000000000e+00 -3.3322861973288365e-06  1.8991772409232295e-06 0.0000000000000000e+00 -3.0238636719636884e-06  1.3697426829507071e-06 0.0000000000000000e+00 -3.4251901175524204e-06  -2.2339919148641187e-06 0.0000000000000000e+00 -2.7786410112141754e-06  -3.1883857908547276e-06 0.0000000000000000e+00 -6.8870157219979618e-07  -1.8953049043246994e-06 0.0000000000000000e+00 -3.0597207440216061e-06  2.1968388399350412e-06 0.0000000000000000e+00 -2.7348185875180896e-06  1.7174854046524230e-06 0.0000000000000000e+00 -3.2726908186872554e-06  -7.0383364753860720e-07 0.0000000000000000e+00 -3.6041486957147333e-06  2.9512036927161012e-06 0.0000000000000000e+00 -1.6639176365704224e-06  -2.2178747064514422e-06 0.0000000000000000e+00 -2.6967651057043656e-06  -3.1229185494476188e-06 0.0000000000000000e+00 9.9841623187917759e-07  6.7182783562057343e-07 0.0000000000000000e+00 -3.7428463829711600e-06  2.6134042657975082e-06 0.0000000000000000e+00 -2.1868334092991266e-06  -2.7958930928425413e-06 0.0000000000000000e+00 -1.9271841145700804e-06  2.5536544078995635e-06 0.0000000000000000e+00 -2.3567289438987010e-06  2.1021892096705690e-06 0.0000000000000000e+00 -2.9770978490632018e-06  -2.1314262774187747e-06 0.0000000000000000e+00 -2.7305228018082591e-06  -4.0911987094281846e-07 0.0000000000000000e+00 -1.9780693055956659e-06  -2.7835146111511813e-06 0.0000000000000000e+00 -1.8688246224388145e-06  -2.1700343028402958e-06 0.0000000000000000e+00 -2.7272579610841722e-06  2.9637127261743032e-06 0.0000000000000000e+00 -1.6713921656875130e-06  2.3092447742663129e-06 0.0000000000000000e+00 -2.0936572348868562e-06  3.1045095000712590e-06 0.0000000000000000e+00 -1.2302977042466334e-06  9.7538280163978014e-08 0.0000000000000000e+00 3.3605768389270887e-06  -7.1832198122479437e-07 0.0000000000000000e+00 -3.6705623327773257e-06  -1.0472948321217726e-06 0.0000000000000000e+00 -3.5390503100404658e-06  -2.7111559309879593e-06 0.0000000000000000e+00 1.0710713067805539e-06  -3.1875546698802917e-06 0.0000000000000000e+00 -4.6815021124111793e-07  -3.2796900940424622e-06 0.0000000000000000e+00 -1.9431629157902759e-07  -3.0361279449347836e-06 0.0000000000000000e+00 -1.1737523261398366e-06  -2.7445428356168757e-06 0.0000000000000000e+00 -2.0833387481892919e-06  3.1343108837881209e-06 0.0000000000000000e+00 1.2750086026628075e-06  1.1820772190092563e-06 0.0000000000000000e+00 -3.3170953857967968e-06  3.2459808930913114e-06 0.0000000000000000e+00 -2.7327772993566191e-07  3.1579037809611516e-06 0.0000000000000000e+00 -6.3548624957016803e-07  -2.2363049457149413e-06 0.0000000000000000e+00 -8.3710413861121493e-07  -3.0867183607808798e-06 0.0000000000000000e+00 -9.4426109320956930e-07  3.0461067759439662e-06 0.0000000000000000e+00 -3.7184546825259736e-07  -2.8180405969844147e-06 0.0000000000000000e+00 -1.8388250736677062e-06  -1.9899977365194076e-06 0.0000000000000000e+00 -2.9703097985932915e-06  -1.3287305336417342e-06 0.0000000000000000e+00 -3.3345995200870066e-06  -3.4024103436925695e-07 0.0000000000000000e+00 -3.7004902404418845e-06  3.7146485019005390e-07 0.0000000000000000e+00 -3.7471236802079741e-06  2.9884725582817037e-06 0.0000000000000000e+00 -1.5834055519589926e-06  2.4803263497537636e-06 0.0000000000000000e+00 -2.5220785093590490e-06  2.1763838529788168e-06 0.0000000000000000e+00 -6.0257537665817901e-07  3.2228776795088598e-06 0.0000000000000000e+00 -1.0850858003193261e-07  -1.5564167138472163e-06 0.0000000000000000e+00 2.6092176892655131e-06  -1.5157347684659038e-06 0.0000000000000000e+00 3.3721609252851106e-06  3.2376310496334506e-06 0.0000000000000000e+00 2.9418347918697064e-07  1.1042381275557236e-06 0.0000000000000000e+00 1.2611477199950522e-06  -2.9878573651643105e-06 0.0000000000000000e+00 -1.5771044214511384e-06  4.0514317387052452e-07 0.0000000000000000e+00 3.7430580861604916e-06  -1.2385822446752950e-06 0.0000000000000000e+00 3.4394748054029622e-06  -2.7388136900283196e-08 0.0000000000000000e+00 3.7929446180306461e-06  1.0928590431109703e-06 0.0000000000000000e+00 -3.6540018524548093e-06  -4.7670268494809882e-07 0.0000000000000000e+00 -2.4455415307388167e-06  -9.3279931377447868e-07 0.0000000000000000e+00 -3.3873972599419606e-06  3.2977410376102283e-06 0.0000000000000000e+00 -2.1429648228721215e-07  3.1119186053780844e-06 0.0000000000000000e+00 -8.9915962272267122e-07  2.7901017412425289e-06 0.0000000000000000e+00 -1.8613758472119743e-06  3.4211465043775591e-07 0.0000000000000000e+00 1.8511826928899937e-06  -8.7820449985442503e-07 0.0000000000000000e+00 1.9577969765416414e-07  -2.3067755765985499e-06 0.0000000000000000e+00 2.7079104484110453e-06  -4.9002612420156999e-07 0.0000000000000000e+00 3.6977240710003205e-06  -2.8668951766321275e-06 0.0000000000000000e+00 1.7369030787631661e-06  1.6946675803957601e-08 0.0000000000000000e+00 -3.8217276330617808e-06  -3.1448733303410584e-06 0.0000000000000000e+00 -9.9053447928550591e-07  2.6654233534325880e-06 0.0000000000000000e+00 2.1478061450141007e-06  -1.5127587519434309e-06 0.0000000000000000e+00 -3.2248177793329041e-06  3.0342233392846329e-06 0.0000000000000000e+00 1.3225413671033737e-06  -3.1476842212722002e-06 0.0000000000000000e+00 9.6665811160790854e-07  -1.5468464695381675e-06 0.0000000000000000e+00 1.0782831427504659e-06  2.0161477223518433e-06 0.0000000000000000e+00 -3.0583703167473225e-06  8.1895774707397907e-07 0.0000000000000000e+00 3.6841642636338198e-06  -3.2194422002764104e-06 0.0000000000000000e+00 -1.5590018501266314e-07  -1.7281325124939310e-06 0.0000000000000000e+00 3.2748534267214082e-06  1.6787534040013942e-07 0.0000000000000000e+00 -3.7775596139998927e-06  1.7346959190389839e-08 0.0000000000000000e+00 -3.3293743108166436e-06  1.1309323384847561e-06 0.0000000000000000e+00 -2.2909850785600790e-06  -4.0844356882948738e-08 0.0000000000000000e+00 3.8000165322953556e-06  -3.1109692526388630e-06 0.0000000000000000e+00 -1.0811012296294173e-06  3.1333465986423326e-06 0.0000000000000000e+00 1.3368885597210914e-06  3.0290157050312232e-06 0.0000000000000000e+00 -1.2698345686331369e-06  -1.8632332314752888e-06 0.0000000000000000e+00 -2.4518890798399002e-06  -1.0356675765487115e-06 0.0000000000000000e+00 3.5911334384127949e-06  7.9203864983154973e-07 0.0000000000000000e+00 -5.6729990012357375e-07  2.4232629597569592e-06 0.0000000000000000e+00 -2.5194974393148323e-06  2.9034105811087922e-06 0.0000000000000000e+00 -1.6768426687023840e-06  -2.7047345694871592e-06 0.0000000000000000e+00 -1.7078345546515282e-06  3.4331885734853052e-07 0.0000000000000000e+00 -3.6949629977362094e-06  4.8966431470839331e-09 0.0000000000000000e+00 -3.5745612897046845e-08  -1.5700912693638680e-07 0.0000000000000000e+00 -2.3956005339446460e-06  -3.1881442982725529e-08 0.0000000000000000e+00 3.2555351718344111e-06  -1.4873579673733855e-06 0.0000000000000000e+00 -1.5126607734165789e-06  -1.2845147316815101e-06 0.0000000000000000e+00 2.5090653228414608e-06  2.5789410437045886e-06 0.0000000000000000e+00 -1.4963232209867480e-06  5.6038302133213248e-08 0.0000000000000000e+00 -3.2839634147273776e-06  1.4040571243826454e-06 0.0000000000000000e+00 7.4349124348583857e-07  1.7829118960415453e-06 0.0000000000000000e+00 2.3692975523014979e-06  -2.4797852268608327e-06 0.0000000000000000e+00 -1.7583740670428374e-06  -2.1730938192150618e-06 0.0000000000000000e+00 1.6822118955986348e-06  2.4188058074757780e-06 0.0000000000000000e+00 -6.2166453717265402e-07  -2.6567860505750504e-08 0.0000000000000000e+00 6.9779190976307143e-07  2.7498597625910872e-06 0.0000000000000000e+00 1.3066402212248525e-06  -2.4123222232553372e-06 0.0000000000000000e+00 -6.1278496294463027e-07  -2.8974400731850644e-06 0.0000000000000000e+00 1.0012454241277818e-06  1.2525065276856265e-06 0.0000000000000000e+00 -2.3786902185241911e-06  1.5796671403378710e-06 0.0000000000000000e+00 -3.0433558929147329e-06  -1.8610782201159777e-06 0.0000000000000000e+00 2.9565195735701105e-06  -3.0579857374479589e-06 0.0000000000000000e+00 -4.9180261643022408e-07  -1.1147397783613192e-06 0.0000000000000000e+00 8.1455039948094813e-07  1.6230632724969582e-06 0.0000000000000000e+00 2.8038667835830715e-06  -2.3803903555931396e-07 0.0000000000000000e+00 2.9896683925130530e-06  -1.7230900669572510e-06 0.0000000000000000e+00 -2.9595956484545347e-06  1.9768586739744047e-07 0.0000000000000000e+00 3.6269237901365121e-06  2.8543275276553121e-06 0.0000000000000000e+00 -7.1178807429554340e-07  -1.0571286128786252e-06 0.0000000000000000e+00 -3.4323630547113937e-06  1.4823196377593533e-06 0.0000000000000000e+00 3.2715416162411690e-06  4.3911053393025610e-07 0.0000000000000000e+00 2.9800682692523104e-06  1.7405778532801726e-06 0.0000000000000000e+00 -3.0978768340512472e-06  3.1299925868498130e-06 0.0000000000000000e+00 7.8829859554335133e-07  1.2015197585276019e-06 0.0000000000000000e+00 -1.5070068859731447e-06  -1.0970286414172724e-06 0.0000000000000000e+00 -1.5139439574083909e-06  -2.0204113600017685e-06 0.0000000000000000e+00 1.5441977518407433e-06  -7.1217472879031006e-07 0.0000000000000000e+00 -3.2169053315253697e-06  2.0397056040600726e-06 0.0000000000000000e+00 1.3817657544627694e-06  5.7571819440215767e-07 0.0000000000000000e+00 -1.0976493762984350e-06  2.7728131265028825e-06 0.0000000000000000e+00 -1.8277239306395006e-06  -1.3171592378650321e-06 0.0000000000000000e+00 3.2868697502443122e-06  -6.5945542355276944e-07 0.0000000000000000e+00 5.9410829425129358e-07  1.2083232899920050e-06 0.0000000000000000e+00 1.6867940702585422e-06  </DataArray> 
</PointData> 
</Piece>
</UnstructuredGrid>
</VTKFile>