<?xml version="1.0"?>
<VTKFile type="UnstructuredGrid"  version="0.1"  >
<UnstructuredGrid>
<Piece  NumberOfPoints="201" NumberOfCells="657">
<Points>
<DataArray  type="Float64"  NumberOfComponents="3"  format="ascii">-0.5106973261534867 0.1082476745120455 1203.418479791865  -0.1477027748967061 -0.07747287187481354 -1203.657915129904  2442.572806509615 0.1278982157400178 -1148.712277486938  4628.477407832598 0.0789359849438494 -985.6289756046009  6339.868024436658 -0.186290412708897 -724.6692770018617  7425.43806210832 -0.1474367420907607 -383.7361036830424  7797.264085718511 -0.02945983726626044 0.1008680464384069  7425.597457220167 -0.05484897288157321 383.781702616854  6339.872829453525 -0.1276248663813204 724.5978925247895  4628.381353263982 0.1678649565849233 985.7508015719434  2442.729105275012 0.08507495468507609 1148.639056000923  3085.77461253823 -2132.01782034339 -1053.621906248488  3068.681652895313 1655.815521135662 1078.911342630938  7421.031910438204 -1915.151579566073 -184.2273278430011  5376.037627587885 -2079.077732532505 817.1950195393354  6764.498981529771 1933.572917712958 520.2732553430525  6737.09688887124 1933.691871637784 -529.1005369035029  3444.796430861891 1909.228040507456 -1040.915282073749  1190.164923840995 -1904.706224508339 1146.487027091204  5342.908687266778 -1915.602287641005 -834.0217671868841  3716.268293463354 -3749.622891561543 -856.9556027059649  5501.210041455872 -3687.312468646588 -595.5333500870521  3764.052988453769 -5258.771693238182 -568.7952971041985  5293.041239527538 -4947.779161363821 -281.9343762995111  3314.792427301623 -6261.165890613056 -238.0994323493364  4721.52389444543 -5629.047854529632 60.5717567864767  2475.902187862303 -6685.032209827839 108.4941484987807  3601.961137058849 -5812.128145276576 412.3094252316217  1296.528651315328 -6501.241995217382 436.3637867850277  2314.902929447298 -5302.244090806108 720.1538498337584  -89.81233150184966 -5691.017969601418 720.1817407208511  5530.874369394003 -4578.063224592735 350.1877175465088  5343.539662099867 1915.805687844342 834.1062551385893  5390.214391419516 3710.878982693662 615.7170393077632  6509.262660635425 3565.187349436275 280.586173155633  870.4204233436984 -4225.249357738193 960.0272565004434  3187.544725558189 -3711.046368950465 909.130871351912  3718.148984358395 3535.596858384633 883.0678801841577  3561.970815770837 5175.533855511703 620.0709254628309  7435.63067684873 -1868.478033969855 184.2701090647282  6545.719380112727 -3854.006853592343 21.36463056059756  6779.999255932042 -1935.489724275283 -514.9714528892824  1189.923055958051 1904.920296589404 -1146.448362434058  5291.249916282428 1867.154946154714 -845.1690841927625  5349.464959012405 3690.745792798368 -627.8852648963572  1611.203249801284 -6307.400792385656 -491.4225608200331  -1127.014108532002 -6578.301929315756 413.1105182300439  1589.764365018317 -3837.194621246811 -985.7993767660241  6465.067467486437 3607.185294605179 -289.812510813847  4827.801895907833 5196.657847778185 -346.5288737580196  3439.847900074431 5045.263912702085 -666.5537013572729  2703.107904160574 6283.009413528367 -371.2634949275932  1198.211405461453 5891.091506768971 -646.29690157203  348.6014600759548 6795.340017899931 -336.1037421538155  -1227.512022149705 6062.057319821392 -596.720635051281  -2017.76044789397 6678.438776679271 -253.9263997833289  -3566.013859207732 5709.43925170977 -460.0711027988984  -388.3232637877466 7069.347478071029 22.54709974103292  -2492.404302290045 -5477.160244810041 665.9747618934394  -3428.245398394986 -6066.490161726095 331.2706208231406  -4177.870473889679 5939.722768376386 -124.7109641128838  -5531.350624062863 4654.477834014277 -317.9265579659375  -5886.116643848678 4647.855511582055 28.4471545545753  -6918.01166570371 3072.456115118548 -200.0253902298627  -7012.935275208105 2916.97493833077 186.4372091923619  -6162.014993951057 2906.355292090127 -566.4912357504332  -5671.068559724577 4298.066058080202 399.1630410493299  -7330.47272960496 1274.468415171144 -363.7645141756386  -6496.285001560902 2394.454788671472 546.1497124228347  -6264.861250155774 815.7761612454897 -726.5596655591773  -7016.426275243152 -924.6838063022492 -521.3246368031024  -4841.055475381381 3597.066716938318 734.9511826648236  -1089.506472236254 -2926.061280555408 1085.20550961081  -4699.364887109972 -4696.654476288778 546.9853772533379  -5638.220102056121 -1248.655894905981 -825.8602135969751  -6065.295371098437 -2934.749203106063 -587.6361914242849  -7497.239459761799 809.0749150458062 314.2388867181479  -2616.671306276125 4719.854841681893 -809.2989053334264  -5371.085112610214 1536.821913006413 853.5136181382696  1685.015054466946 4764.94732803283 857.0403877895257  -7215.309828187115 -2410.881911013877 -210.6099784472868  -4582.776206396739 497.7306750983809 -987.1860316293305  -3567.034087962024 2729.79071203571 975.9855676978764  -4387.319675859259 -3146.079091220872 -854.5560246002107  -4569.624152997514 -4689.366132040334 -575.0355551223696  -3847.097721944484 5276.014752185816 550.4059260929212  -1954.348254522499 -6839.664348954911 78.51246563938447  -3767.138958374789 459.9593290175213 1063.086360711517  -5542.24101152677 -666.4067224904949 860.7820630501034  -2646.513774782597 -4689.846679615992 -812.2307360694147  -2639.750998285773 -5983.82162396192 -504.7574480789112  -2294.75223215177 -2965.695366997982 -1040.177250154741  3936.593142346434 6112.391477115244 -34.48894268944106  -5303.753595216851 -5044.53190092197 218.0253684717608  -6401.30585540714 -3413.008522885926 383.3895944083389  1394.210914217876 6139.90556019302 564.1711334235275  -505.8666512692052 5533.128776025869 750.9361163287265  -176.0691657205175 4165.683767695912 975.8585286764155  -2139.257163513197 1760.043070593178 1123.225848567581  -3542.530905868337 -3832.038360705241 863.395324680761  1847.639659150922 4658.833786741953 -866.2241249286628  -4356.957243717367 -5670.864324715335 -267.7031028210049  -582.70426091812 3569.599658351439 -1037.856765458445  -1297.215956503105 1530.085656845297 -1160.009159687364  -865.1044522392465 6610.632481423359 412.9801546633075  -1670.407488925025 -1082.999850065349 1163.798107189507  -563.700804177663 -5795.195248478573 -690.2077308157761  -3596.719253448945 -1744.247962420479 1037.736859142397  -5510.188480584019 -2819.057691176112 723.1467115144421  -6848.227115997337 -1359.080993778239 548.0936355571014  -7472.593903649613 -1767.418172097706 174.4734816750921  -7763.372826080734 -229.9384248852437 -108.2931910782137  -3021.961017728911 3037.821381730853 -991.5652751556221  -4565.263448575019 3368.685373266916 -805.967091810616  -661.4683178271729 -6660.932302638648 -398.1001272722471  -266.3318708822781 5222.997715343994 -815.5860679952654  3097.849355176636 6231.137919790694 318.9223283834478  6736.034401752434 -1849.959806673042 538.5346209647473  394.0224332472783 -1998.615729079857 -1153.569411058909  1225.799014152293 -6905.713249698159 -187.6015494766036  -2385.873606754004 4518.556726486001 857.6862263245984  7452.669532992808 1795.745746372929 -188.1892976524068  4970.29310749593 5150.73686583161 316.0675527751965  5861.43167572107 4675.787873072491 -14.09667162119874  -5945.804016732207 -4228.436620263157 -311.7066808448657  -2570.367506516969 6663.402449195377 95.07495614482869  -4319.097569148743 5756.33748523709 224.2869934342319  -425.9317273990209 -4319.116231588305 -954.5164910209112  -1842.475225523311 -787.9041696097936 -1165.266266862947  -3871.624028607895 -1267.678480105862 -1035.530505077912  1790.757042625961 6881.256928698032 -62.34376447798933  209.0585274339443 -7032.809636461774 135.3293061119895  4313.43199634336 -4481.027712054675 665.3082605595276  7465.213007318458 1818.696027925518 167.0451635593907  3446.244223720031 -1895.473226451177 1041.59917374024  -6584.070293094056 -3797.101049754905 30.57711283863494  -1403.312891503253 -4663.865300098242 884.0666936975285  3823.213667665885 3427.927008684117 -884.8961396093222  -6704.376197874189 567.6218552601821 629.6560203001281  1754.527517233826 -5266.990894496523 -763.1240316390026  1927.537759245188 3393.397569221486 1018.680463944825  1104.600382209682 6847.779561056816 255.9738653469261  -4853.83153851205 4450.575730101067 -575.5391836555608  6518.825089811278 -3432.854646805372 -322.9524475745263  -121.1710594747907 1835.773817484468 1162.501090264118  5916.35829327203 -3335.968475423849 559.1703429153387  -7567.291958426234 1701.479501967357 -28.35943486888877  -4012.703944553964 -6074.632462822348 11.69475150612751  -2449.159802353002 -6619.919439734333 -202.3197600818883  6987.22723764342 3150.09559826297 -8.665546287496822  -1756.384350521414 3481.486300072003 1017.256330030066  2186.828420804909 3162.04903120201 -1028.583092535236  -2663.712760308337 519.1007015554803 -1134.640848081755  -2842.366137548929 6199.593598564209 387.8008596815561  6631.570180004827 -3193.367372229017 340.1565554584608  -529.2531895839372 -7027.145220041969 -122.290861155519  -5037.507863749311 1844.295382507177 -882.5321103542474  -3454.996864008866 1563.076728101324 -1056.924460367121  -2180.930661909801 5694.469497280956 637.7180002844966  -5467.051226930605 -5040.138242013521 -68.87569125411027  0.1453489121942519 -0.02333282646961453 -0.03033715437593316  -2513.912996902356 -2765.918292395378 33.34053216867576  3803.960352448959 1079.906492507651 -5.482514678307775  -1515.486375001989 2905.345308441166 266.0295408594134  2836.21012569681 -2061.180638534115 242.5622378798916  -1853.818018968405 301.4326023781848 -536.9545258979715  -3913.158163645468 549.9082055802056 0.3632247005647845  747.4141727391125 3285.221165205256 -230.7973236202373  2646.048853943496 -1620.267569058949 -362.032912998577  -2061.516404079159 -307.6424474442772 521.0345073118341  1972.39566415187 2445.591446075878 420.5591087991098  -728.0827444144859 -2789.34540692507 -456.1640638519183  649.0400868885716 -4030.154097992617 2.196549867238709  1573.721361432886 1069.861674569
[...]
<PointData  Scalars="Pressure"> 
<DataArray  type="Float64"  Name="Pressure"  format="ascii">-1.2791421069475603e-01  -1.2794323079016159e-01  -1.1555351767328348e-01  -7.0811440423542996e-02  -1.3699359023571852e-02  1.8951526054234218e-02  3.4534426374993543e-02  2.4056989333713415e-02  -1.5018419830841777e-02  -7.1961921386545488e-02  -1.1576828905599570e-01  -1.0258515958371899e-01  -9.8764377581956872e-02  2.3985654523286687e-02  -4.5093706623960582e-02  2.0438133268143213e-04  -3.1290609429911499e-03  -9.3548245695418031e-02  -1.2961365465608782e-01  -4.8021976957181245e-02  -7.3643468405478016e-02  -2.7941945294584613e-02  -6.1720563609933110e-02  -2.8572961724394955e-02  -5.8011331291892995e-02  -3.4327204741057708e-02  -6.4343576911746775e-02  -6.1866467288810054e-02  -8.4137447062257481e-02  -8.9600968386415791e-02  -9.3574233637960955e-02  -2.4353448524245216e-02  -4.4631234495650235e-02  -3.8904725089948432e-02  -4.5142239259405850e-03  -1.0509578854632591e-01  -8.5111736144842826e-02  -7.5655741722935793e-02  -6.4100780194664017e-02  2.6571858604837951e-02  4.5645568114200631e-03  -9.2241226420118388e-04  -1.2450594186478670e-01  -4.9059134611619051e-02  -3.5718100853346660e-02  -8.3937941317532599e-02  -8.0963503432798789e-02  -1.0812038194017688e-01  6.6735421997203613e-04  -3.6360521080686631e-02  -7.0548599829086039e-02  -6.6056502026485026e-02  -8.6724935522676461e-02  -7.8738326103830247e-02  -8.3932192566859132e-02  -7.2075840520314932e-02  -5.8260338054989577e-02  -7.6309433038961205e-02  -8.0059989803127174e-02  -5.9961054043684521e-02  -4.3713758986344491e-02  -2.0041589394614569e-02  -1.2912507990118850e-02  1.2390739877449489e-02  1.1318483815083619e-02  -1.5435074993748068e-02  -1.7014087506387048e-02  1.5569344073496558e-02  -1.1714105507155499e-02  -1.6107040728819536e-02  6.5795899628757421e-03  -4.7889700769307743e-02  -1.1561919997867487e-01  -4.3015570985544926e-02  -3.7706997010665336e-02  -1.7330012968195897e-02  2.9177668381155566e-02  -9.1293808178173008e-02  -4.4949979832077123e-02  -9.9979055551877846e-02  2.2912806324628301e-02  -7.1071449824030977e-02  -8.6684643793313573e-02  -6.8859040563902352e-02  -4.9328168153687277e-02  -5.8621836203807294e-02  -6.9367868381290998e-02  -8.8336158293827557e-02  -4.1994847620635073e-02  -8.7119838836543451e-02  -7.0642558979798126e-02  -1.1010437669042392e-01  -4.9099325257956669e-02  -2.7833686937164325e-02  -1.9405906968296648e-03  -8.3378761565063700e-02  -9.4088273928418925e-02  -1.1606657479480897e-01  -1.1450714056135189e-01  -7.5052374826021270e-02  -9.3247413249963398e-02  -4.2129021537094691e-02  -1.2264464534636661e-01  -1.2075548931383606e-01  -7.8912680213956282e-02  -1.2313958140828242e-01  -9.2003275220103209e-02  -9.1445896858074305e-02  -4.1487969038371098e-02  6.6783540690339193e-03  2.3685816318889299e-02  3.9404929896633335e-02  -9.0999227276425954e-02  -5.8986355840104462e-02  -8.2124526293633121e-02  -1.0547156497644330e-01  -6.3480941160487969e-02  -3.1228429283328809e-03  -1.3240133216066968e-01  -7.4718061923011836e-02  -9.0885916305023975e-02  2.6955565843567567e-02  -3.1053598513476988e-02  -1.2768686667201844e-02  -1.2066454142651447e-02  -6.1502676884192094e-02  -4.4209958240968114e-02  -1.1127117316085224e-01  -1.1844839594772526e-01  -9.0636236916534080e-02  -6.7053082835926023e-02  -7.7485568015123144e-02  -5.1676905458080576e-02  2.6023319964447650e-02  -9.4373021507643470e-02  7.6244338635065578e-03  -1.0608908644812519e-01  -7.7025774393902485e-02  -1.2408406178578192e-03  -9.3550951217503897e-02  -1.1217480773960892e-01  -7.6253296761249881e-02  -4.1340383023476625e-02  -1.1642450958445796e-03  -1.3332939861981624e-01  -2.1174706355225659e-02  2.7020649516564608e-02  -4.2957837566900123e-02  -6.9587037471896734e-02  1.1640960460611976e-02  -1.1033720233996963e-01  -1.0692209353853740e-01  -1.0523523348776094e-01  -6.1733847638207967e-02  2.1544533669390371e-03  -7.5182828386545428e-02  -5.5245168953518199e-02  -9.3153934876438554e-02  -7.7964416138694689e-02  -2.6967046096005875e-02  1.4044189989269365e-01  9.1838150305247557e-02  1.1136641623425134e-01  8.2455600957669462e-02  9.4692294112062980e-02  8.1310832596758559e-02  1.2031470347622225e-01  8.4322733275250847e-02  8.8179875915829917e-02  8.7170666371398767e-02  7.5626240432661127e-02  6.3360207072526542e-02  6.9135296136736940e-02  6.5391536621711918e-02  5.4738571974101154e-02  6.1829804918307203e-02  7.4984498384923923e-02  8.6143193225556802e-02  8.1586835291433291e-02  3.8132813967009349e-02  4.9213271698125990e-02  6.6105071178587771e-02  6.3132402445778238e-02  7.4270576679968905e-02  9.5679934156414348e-02  3.1073092564607732e-02  8.5364370222019009e-02  7.8319252880419535e-02  6.2957064124361056e-02  7.6539653116540582e-02  2.8499984857779576e-02  4.0545981273317218e-02  3.2751985234436093e-02  3.5890895537815187e-02  5.7738982879833742e-02  3.6752786382353422e-02  3.1956355176339601e-02  2.9753104767002245e-02  6.5255357704789047e-02  1.1886479966406649e-01  1.2507338747781588e-01  </DataArray> 
</PointData> 
</Piece>
</UnstructuredGrid>
</VTKFile>