<?xml version="1.0"?>
<VTKFile type="UnstructuredGrid"  version="0.1"  >
<UnstructuredGrid>
<Piece  NumberOfPoints="201" NumberOfCells="657">
<Points>
<DataArray  type="Float64"  NumberOfComponents="3"  format="ascii">-43.51672000781568 -30.45347055808131 82.95268042196541  25.11675939836039 35.10111090869095 -81.94183514240356  1517.419614874567 -172.6349235444723 -231.5025736625556  2527.338281336048 -298.4215126098795 -339.9566330896334  3069.002201687531 -348.3262665962951 -384.2779857424558  3343.893812050767 -362.466447698967 -349.0826894196692  3431.092004487632 -365.8812000118553 -271.8224635147516  3347.855775035918 -368.0905255281799 -196.0418313567656  3070.519570874269 -365.7411758176261 -146.9182869938757  2511.471835819805 -338.1611077326239 -117.7259563624052  1470.594969918894 -228.2238604079443 -48.44524357044779  1934.924201903091 -870.92638826642 -131.4245462179374  1658.38669482967 256.6781995421721 -178.2870959342497  3377.804044065345 -885.9501901940778 -221.6469190884341  2801.647660583626 -939.2510385945338 -3.791642624975697  3049.739320246361 177.7144526121284 -260.2728525286347  3038.560071531651 183.99450045857 -447.3826287641385  1828.012480957777 350.7929738436719 -400.5528811757394  862.1250003891791 -741.0513250310206 153.1323106100401  2814.395887792869 -875.0838882619674 -253.4589769642272  2175.725487470856 -1330.066551731203 -75.70891741816783  2805.649029130042 -1338.891463473291 -147.329642658121  2107.988075163049 -1674.432042636074 4.31288762032892  2649.069488307393 -1625.487324280419 -37.05970746211366  1869.321518674816 -1860.12507035594 102.4227962033168  2408.631616319766 -1763.669723719931 76.85562127706696  1501.358626994559 -1906.600072914946 212.1159557321587  1989.886469432173 -1781.012922065582 194.8096813260875  989.175503723677 -1817.088771885843 314.4651093785226  1475.221147446793 -1640.317113577659 272.7640583092179  311.094358591736 -1577.041079220673 390.0062719272094  2741.275386823919 -1546.452882870858 61.41834733896357  2615.645954990306 211.2740765085075 -235.0577017862418  2404.930466173103 703.3560660039377 -311.0941769283227  2791.311232441798 617.6968129101051 -347.4499113169499  766.2043970036788 -1335.604056722083 306.1741644981828  1921.435024297698 -1326.808334970396 171.0542825080003  1736.196614312584 762.0280603612864 -275.0425040187017  1441.77349492572 1183.721832698955 -320.1824031975946  3381.246179461876 -874.822612560049 -145.5785110236345  3086.144043596795 -1377.230144935259 -67.76240368677786  3225.963434051603 -893.4951070896551 -268.2009719597975  587.8645159598893 543.6159586988363 -284.8883570421552  2594.20332837235 223.2239752191544 -455.5074673790605  2382.310484090512 710.373523637249 -497.4201603364053  1159.240986691026 -1801.155072760114 153.8708054917278  -160.9484307469023 -1671.94326472347 409.0689304359774  1204.51611484698 -1264.344346828779 51.39980748474371  2766.145599487458 634.4277928445382 -451.4885161710038  1978.242609628803 1100.42646109446 -474.535125605566  1411.116101461979 1166.244074339136 -489.2077736031404  924.4125815948045 1488.206084170371 -445.1632935727695  231.9922381629529 1529.283944079868 -428.1148225062292  -240.3675379456495 1765.680772448552 -365.5959084084224  -977.0541751550461 1735.44671362555 -326.3390421103445  -1325.827896101274 1889.891370336954 -254.9678861192239  -1994.42420388427 1767.134864202885 -200.7414917182463  -600.8126682028526 1865.331664487554 -280.8826471910197  -922.2970575086396 -1344.022740725589 472.2312853338405  -1279.854580575751 -1398.982939291546 459.054300073876  -2210.97904615602 1825.806537724275 -121.4180765931911  -2740.611529783602 1573.284310569639 -63.36361575071574  -2848.456388963638 1569.718934307929 18.92161977460576  -3219.237951858926 1191.168331265666 71.32205384475333  -3247.819880194464 1149.756417628582 162.6775233630702  -3016.068121013251 1158.064180598485 -4.126957140164043  -2814.767322043736 1491.071680234799 97.26438340506367  -3344.266288519747 719.7623569456258 132.5535416783776  -3132.018090202954 1016.866823387347 239.0023367290348  -3066.595572052794 598.8984837263143 98.09600689835901  -3186.931480072039 105.3912258566323 215.6510006782567  -2605.208550472817 1320.399392467576 133.8448425554241  -451.1574741531592 -842.721806714281 339.0875799674665  -1989.838148120455 -1005.187667295268 497.5980499578426  -2770.165086409743 -10.60018681031401 204.2264963922952  -2727.009973536624 -473.1478499687897 294.4950524763867  -3373.485088698596 588.7826897511534 297.1604255735483  -1636.514699713443 1535.342258436671 -242.4992134633301  -2819.077828077658 772.8721375137638 276.9099917592634  552.652019890309 1241.268529082519 -248.311508346505  -3112.315449047027 -299.3374056038822 323.9611106519953  -2501.702730897521 482.6649858496913 83.69253405110682  -2152.837205738252 1066.736803091754 120.0968506639634  -2076.682666394724 -617.6866346828856 274.7347660399357  -1943.513427778922 -1005.238527271183 330.9461695036186  -2144.513538926338 1688.571690486319 -4.359121086471459  -529.9988527695746 -1658.39742919234 384.0813774688753  -2193.374753181925 397.1332821803546 271.3233221165316  -2786.590935332581 133.6765485317856 405.2834858589682  -1070.857951638769 -1146.920484359287 281.9822378865828  -925.2711766506153 -1438.649312269358 319.4518199432808  -1086.251346993434 -717.6977837641206 214.3690438606495  1498.505297951337 1357.162491862763 -416.8996094123488  -2176.048655329833 -1045.517510359402 457.7415844382491  -2769.583409318726 -588.9882551526103 466.529867502271  293.2122558999332 1564.263919499428 -274.3189863704876  -657.163204384679 1584.108561467297 -170.79870801532  -438.6044652682746 1247.197646899469 -142.5383242506019  -1454.998444386127 712.7315155568315 96.72684500350094  -1614.510551317229 -879.548893879585 481.4302851846384  673.6551910396656 1214.481384681384 -442.7800768486508  -1720.365556849118 -1249.237934170286 375.7122829527652  -586.2937734084574 1152.925412713338 -287.2997223096882  -902.9127216103301 636.2498295751416 -121.8656615455285  -830.53859753712 1816.540718480231 -200.742481785559  -975.1653431424534 -246.0439651149559 261.5695589015787  106.3886240992582 -1564.07542501483 230.8358113475367  -1905.87140143075 -295.4481507464469 397.8116857000342  -2551.161731916176 -479.835381131673 485.7776360427244  -3104.546055615776 -27.25932745110809 430.5542750156234  -3231.583604726824 -124.7417011127989 378.4562027444452  -3401.479268293942 302.9011659281518 255.413455173129  -1860.566958877972 1156.568128008629 -141.4893120880423  -2487.192112628638 1273.011552434493 -96.7716804978256  83.11321309563309 -1723.885594293472 270.2617453813803  -483.0959114947825 1505.024908558424 -365.3083131223107  1107.620338687486 1446.474644964125 -349.1986933030614  3208.447961881773 -876.8710404482626 -73.50521809324158  436.197861777302 -654.7222717456827 30.86531920430254  965.5692915340602 -1886.942036916783 220.6644620950617  -1586.783527454584 1474.898771920413 -33.93601991688629  3237.518493641333 129.5513609921882 -382.5811855801715  2042.337975854575 1079.198509910166 -367.3241879814569  2431.066799718594 919.8949300067419 -417.317678077374  -2518.027635430416 -812.333514181501 360.8788851142501  -1562.279052478446 1914.144603414842 -169.4963771585689  -2276.43545388289 1792.797245909488 -44.87003696283206  105.0013321775527 -1242.005621609492 183.9446565354945  -1048.96195050017 -75.08804814771176 74.68434309923583  -2081.09456824125 -87.67263942684173 176.9311735084404  439.2898788930101 1675.203994422284 -373.6425667730397  492.9780171327386 -1847.58368349446 317.9073595354435  2330.219632598815 -1520.889716172915 151.2390488321225  3240.443644219939 134.5984096825209 -310.9543368357931  2044.584986179247 -856.1432896507596 50.79250119499152  -2783.883523300857 -674.4127692644773 409.8936993051447  -449.7378081237413 -1254.803007397493 426.4059976127494  1801.0982102107 744.6088516025342 -475.6072389817533  -3175.673310448728 515.1029755112246 350.0274474387916  1260.127761190527 -1604.566575812957 100.0333655757753  824.9232617068948 869.0969282313389 -218.284255516279  107.8323024528898 1721.712763517723 -302.0266135166328  -2537.229333803974 1527.833662028538 -118.8116082162669  3105.790158036805 -1275.416126286957 -154.7525820673404  -268.0113090983398 580.1234356992056 -35.57942613295063  2928.618349308339 -1261.400858272016 26.96642533393786  -3399.222992721939 831.163699967741 182.7081356838086  -1525.366234281822 -1360.559187511838 415.8856488820113  -775.4366873168967 -1580.107743508526 353.3901686173751  2981.898610611543 495.8647955150543 -386.9745325741011  -1291.891526162943 1183.274913927068 -22.94748121548714  1030.933132391437 807.613611697686 -406.3278240054147  -1623.574450535325 413.0342933164303 19.418178652356  -1702.163846680952 1840.996352685527 -99.99455682439462  3138.326235729169 -1218.274629253302 -35.70772276693987  153.7589540340981 -1799.177084263489 304.9097901802905  -2698.031154977324 884.1800392595804 6.770481585364603  -2044.598079072516 765.7446029222763 -28.58166556786609  -1450.306525433857 1715.20338239536 -93.64824190490462  -2237.031396157849 -1033.481834323788 409.2481774180441  -6.713374175635243 2.630322364774039 0.4065257236223062  -1245.826083113255 -662.1101237975671 309.9714646853444  2089.571172154845 56.24725201498657 -267.8310508836899  -1134.638966165251 1027.626640325947 -80.28801832096484  1793.480263109574 -870.3128073706619 5.301584613513547  -1178.17505164155 273.9387598715545 46.6423972088235  -2255.714462907548 457.868378639018 167.9309760584159  183.3372025969844 964.5265721494169 -269.426914015252  1707.056011698327 -715.8246849591997 -70.26672353137236  -1265.736442192149 57.68995969786705 181.4516706562145  979.0078899889917 601.5290386213561 -233.4362327464709  -205.8824381034566 -811.7518848139201 186.404969259261  674.3449997629474 -1268.427556365353 210.3739657434379  904.1861529020981 232.4394517610493 -209.7292501467882  -129.9677943
[...]
<PointData  Vectors="Forcing"> 
<DataArray  type="Float64"  Name="Forcing"  NumberOfComponents="3" format="ascii">-5.5985776269303895e-06 -9.4574937383741493e-06 -3.4016268599975325e-05  5.1040100567254784e-06 9.4444585640147172e-06 3.2905389013688671e-05  4.6127186687159059e-05 2.4132539934025614e-06 2.5052495917422355e-05  7.3566574675573912e-05 -2.4784143663174816e-06 1.8036183597072493e-05  8.6569623090388521e-05 -7.4014004456393250e-06 1.1831902369617194e-06  8.4854309242111191e-05 -6.5803915431068262e-06 2.2882852246502430e-05  8.1743881798706339e-05 -1.4766545815701803e-05 -1.6660665326940629e-05  8.3180683780244774e-05 -1.9147029123534352e-05 -3.9680363556513534e-05  8.0710797566564812e-05 -2.0408525010648703e-05 -4.7260963147476221e-05  6.8665353511996986e-05 -1.0830393725653651e-05 -7.8237302717120552e-06  3.8326931747962909e-05 -1.1654902521505088e-05 -2.0535338590440091e-05  5.6189000618628501e-05 -1.9804008119572179e-05 1.5358548803374582e-05  4.2942100799184412e-05 7.6959750114089646e-07 -2.9110244480811705e-05  8.0516239606149564e-05 -1.8035473448385222e-05 7.5786556305846189e-06  7.6911968596107206e-05 -2.8166889397099809e-05 -4.6967401309400854e-06  7.9416992437925826e-05 -4.8406313238803646e-06 -4.8439368002986037e-05  8.2409848978452701e-05 6.3633435367816794e-06 1.8076125773725332e-05  5.3361926827871211e-05 1.4289130939415467e-05 1.0591637142143628e-05  2.0855174495017170e-05 -2.7008795884863828e-05 -2.1349987569321847e-05  8.0669294591543186e-05 -1.9323176917501958e-05 1.6267534258882460e-05  6.2990612399163042e-05 -3.2407112797574385e-05 1.8285667950518184e-05  8.0065637705402373e-05 -3.0059243833086559e-05 2.3042523970020835e-05  6.1915410645073033e-05 -3.9962313576913196e-05 2.6932378187086572e-05  7.2346603053070142e-05 -3.1348683323552376e-05 2.4854414791646180e-05  5.3880580970229247e-05 -4.0330429226437645e-05 2.2690360063082961e-05  6.2159262924355084e-05 -3.6872241001591874e-05 -3.9934484004334742e-06  4.1593455888574781e-05 -4.1699757216596481e-05 4.4803666083294436e-06  5.2406586861943677e-05 -4.7541569110589083e-05 -1.1485906666338281e-05  2.6113005269909484e-05 -4.5313253084719582e-05 -1.1762301277343365e-05  4.1866849296573670e-05 -4.6386491221314201e-05 1.2886476854920139e-05  6.5812306110807891e-06 -4.4889922406091433e-05 -1.3650086104887731e-05  6.8677412453687178e-05 -3.8393150295593154e-05 -2.2389871057903675e-05  7.0466120766685022e-05 -1.6491664618937587e-06 -2.0867762020693482e-05  7.0911662453405973e-05 2.2395957367159739e-05 5.6933857080485900e-05  7.0571025716271857e-05 5.2256297366334873e-06 -4.4191552416078455e-05  1.6929507344494090e-05 -4.4665629786816820e-05 -2.8907930414322565e-05  5.1187852185398023e-05 -4.0846246063860695e-05 -1.2996920106544014e-05  4.8191326697655426e-05 2.8668849998395349e-05 -4.8269607777738671e-06  3.5114319408380993e-05 2.4897034465716128e-05 -5.2787157538946191e-05  8.3164965364352034e-05 -2.5543998631216778e-05 -2.0639236575776720e-05  7.6526154326676295e-05 -3.0490470515670216e-05 -9.2804405918667346e-06  9.0151031230243799e-05 -1.7822938414939790e-05 2.4187550780498979e-05  1.9652881006024248e-05 2.1460793936458576e-05 1.9472687012632370e-05  7.4751300055248080e-05 1.1327707135153557e-05 1.7793325154497969e-05  6.6052890036563070e-05 2.0048976720434229e-05 5.4820116643236133e-06  3.5820360011645440e-05 -4.2410310398782417e-05 3.1491236952785139e-05  -5.2305454960141709e-06 -4.1848237006234249e-05 -1.2734235748963557e-05  3.7503470775465076e-05 -2.8791694148105897e-05 3.3926878167069099e-05  7.2414033921540478e-05 1.1840567858522437e-05 -3.3009675368706298e-06  5.1305657114510474e-05 2.2244845996648396e-05 5.1534671881649341e-06  4.0434519932883957e-05 3.2921248911732512e-05 1.3767624429664058e-05  2.4301267579579228e-05 3.3964928897868681e-05 8.0515255871384218e-06  8.2986055467481741e-06 4.2384861380668954e-05 1.9013668286080922e-05  -6.7361403489993608e-06 4.0139660276849888e-05 1.2377667201359052e-05  -2.4815628520218912e-05 4.7342155215598548e-05 1.7395603648591584e-05  -3.5945096388469298e-05 4.5298816337850683e-05 3.6773693726817811e-06  -5.0863511983320388e-05 4.6995828043920791e-05 2.6367156101361804e-05  -1.9406098633095439e-05 3.8724375167118743e-05 -1.5801763491382665e-05  -2.7105303598845024e-05 -3.7721174339183139e-05 -1.5531945154788660e-05  -3.4338087529118247e-05 -3.4268401670502324e-05 2.6709661029509177e-06  -5.8389590261476401e-05 3.9448709536385523e-05 2.7596449626691595e-06  -6.7829663528807694e-05 3.9150791282465803e-05 2.6306482232146893e-05  -7.1762184214179577e-05 3.0140286855822258e-05 -5.0661798002134128e-06  -8.0990817357248204e-05 3.0757006078035804e-05 1.6211767507476107e-05  -8.3788345008787237e-05 2.3641967306549021e-05 -1.2732723048629563e-05  -7.9038131591495090e-05 3.6965568949435920e-05 2.9332208195598273e-05  -7.9111546845806629e-05 3.1417081642299828e-05 -2.8357745636623256e-05  -8.4098555463260356e-05 2.6839339987775985e-05 3.7782654659280472e-05  -8.7545439826442969e-05 1.9416119812626764e-05 -3.0167090818087362e-05  -8.1475076747567301e-05 2.4588622811818912e-05 3.5530278089029269e-05  -8.4150515258179384e-05 9.2774795241553767e-06 2.8655333643543971e-05  -7.6576544867649731e-05 2.8306234091033985e-05 -3.1662265044961350e-05  -1.6448650776363275e-05 -3.1113719590796907e-05 -2.4365926428738324e-05  -5.5316267031370164e-05 -2.7760001687084519e-05 -1.3356432336453064e-05  -7.4483319828063107e-05 5.0495118385947735e-06 2.4738645574200349e-05  -7.2284239580019521e-05 -5.4210230486717344e-06 3.8238453507418883e-05  -8.5307918359919200e-05 1.3369790039091853e-05 -1.4409561698837179e-05  -4.2947479915999926e-05 4.6775445031573494e-05 1.4709370700828538e-05  -8.0900699977019965e-05 1.7164373210805369e-05 -1.3405310145797515e-05  1.4639301544152807e-05 3.1801608162679040e-05 -5.6281279581266775e-06  -7.9106716266596596e-05 1.1082770087452417e-06 3.0429632323797180e-05  -6.6553806050137970e-05 2.0303077621154525e-05 2.8766600184011220e-05  -6.2991417556656088e-05 2.3910241122530555e-05 -2.1165419269968104e-05  -5.3243657310865376e-05 -7.4651215766930443e-06 5.2009778906768731e-05  -5.1508209384152570e-05 -2.2604659910041860e-05 2.7065962755605740e-05  -6.2467883014505208e-05 3.9202124677682534e-05 -2.7570427816671515e-05  -1.1779277397607070e-05 -3.4799434996608026e-05 1.2211714111296750e-05  -6.5257696081078318e-05 3.6936787748559765e-06 -2.6169927051196344e-05  -8.0475411203675051e-05 -3.0871587791745561e-06 -2.3497053549830411e-05  -2.6583530432982022e-05 -2.5701976160595915e-05 3.2372236139346935e-05  -2.1563323198380812e-05 -3.1589992191263806e-05 4.0430825287043434e-05  -2.6312247576113766e-05 -1.1567844749516118e-05 4.1855557421739807e-05  3.6371585908218123e-05 2.4173713111050150e-05 -1.8268016285869194e-05  -5.6246149438155457e-05 -2.0811666016684296e-05 2.5577005272012559e-06  -7.2503711364182153e-05 -1.1751650681669208e-05 -1.1180536685091785e-05  4.4677874979699456e-06 3.6861344453038072e-05 -3.2865541967207506e-05  -2.1260324995319390e-05 3.8664475604602320e-05 -2.7838785919646199e-05  -1.8212058640542039e-05 2.4341870002142363e-05 -5.0781057699380837e-05  -4.4534092804613777e-05 1.3121581067723524e-05 -2.8127577679782340e-05  -4.7482193969190729e-05 -2.8765144580081780e-05 -1.6316622304505874e-05  2.1530766946689719e-05 3.8470527188081305e-05 1.5998707106132577e-05  -4.4147882080707361e-05 -2.6503892851578506e-05 3.4168079437298382e-05  -1.4857839156191522e-05 3.5203958065990543e-05 5.4446588757883070e-06  -2.1013259536405724e-05 2.6343366412485946e-05 3.1818162719183572e-05  -2.6550308148538443e-05 4.2470530107235999e-05 -3.0365912242822526e-05  -3.1326624968116190e-05 -1.4139491943366321e-05 -2.4765802523003480e-05  5.9831132199976762e-06 -3.7534365605633242e-05 3.0056502439728821e-05  -5.5584795904798266e-05 -1.3194896451062863e-05 -1.4227327200680593e-05  -7.3227713081836372e-05 -1.8923076731938713e-05 -3.0963790844161935e-05  -8.6917940801228380e-05 -3.1578692557351728e-06 -4.2150780457611781e-06  -7.9181050451450431e-05 1.9681232566945064e-06 8.5126384644292966e-07  -8.4706516962425597e-05 1.4193352959250128e-05 2.1287831782768986e-05  -4.7521883522803795e-05 4.1014187436745748e-05 3.3459664867476273e-05  -6.6122391703764478e-05 4.0871803777075316e-05 2.2504376343947773e-05  6.0020639779103611e-06 -3.9562083032494947e-05 3.3400752164166067e-05  -1.1727706244992048e-05 4.4058845438137403e-05 7.3404287945082478e-06  2.6188096161221520e-05 3.0244425720848450e-05 -3.7856704546016063e-05  9.3194777583666363e-05 -1.3881303588815143e-05 4.2065813728559393e-05  1.6021819829745833e-05 -1.1197538152335601e-05 3.2143474900886655e-05  2.9680688901604030e-05 -4.2234545181577443e-05 2.4543751376667488e-05  -4.7171391083621860e-05 3.5746965717808441e-05 -2.2686340375840089e-05  7.7757794647617356e-05 -2.6051740993356065e-06 2.1362745529740695e-06  5.0703618000236440e-05 1.6863270964212945e-05 -4.3110307369963397e-05  5.7975974677103458e-05 8.2401677066165611e-06 -2.1110564021137794e-05  -6.3897661000334046e-05 -1.1687805540597137e-05 3.6363119838668520e-05  -4.4666758602674319e-05 4.0503643103195116e-05 -1.7941366549233210e-05  -6.4054162100575605e-05 3.5099533751070987e-05 -2.5540417210924919e-05  6.1741437151255364e-06 -2.8555641789750359e-05 3.0842653772634818e-05  -2.4633253751706099e-05 7.4539585554392567e-06 4.1933241032413219e-05  -5.3754664845950389e-05 6.4916380516078858e-06 4.4628378097012338e-05  9.1128409306078718e-06 3.5562942082575805e-05 -1.3540140395157055e-05  1.4555151916101827e-05 -4.1823500487962999e-05 2.6095760302454838e-06  5.8748102752841196e-05 -4.7050228540913426e-05 -3.7286546003637250e-05  7.7053442384189294e-05 -8.2988105156202850e-06 -3.6495598862223316e-05  5.4686431891275183e-05 -2.8463763655562449e-05 -1.5998416981706195e-05  -6.9937483360061616e-05 -8.5045746938166527e-06 1.6129136062716958e-05  -1.2980414436715095e-05 -3.5995414434009046e-05 7.6813349410868116e-06  5.3017699333077373e-05 2.5724699790746627e-05 1.9676684453382917e-05  -8.9101396086008365e-05 8.2371639391274906e-06 -2.5730435578851833e-05  4.0230242201160711e-05 -3.6424402676462916e-05 4.2841294854819033e-05  1.9694146302587346e-05 1.7685114468263953e-05 -3.2767522268436804e-05  -1.9605594513362720e-06 3.4624389040178943e-05 -3.7253727905684042e-05  -6.5603781123474973e-05 4.6409572508468017e-05 3.2821890774183117e-05  8.2342822248059278e-05 -2.6291026949232752e-05 1.5915857636190540e-05  -1.1544676453468498e-05 9.0378388688404160e-06 -3.1774686482854060e-05  7.8290121977151603e-05 -6.5702810909435346e-05 -1.0218190663709754e-04  -7.9712738470238788e-05 2.0877988555099877e-05 7.2397904925632239e-06  -3.8276210630135753e-05 -2.6956837452868293e-05 1.5394385125271076e-05  -1.7159043801595448e-05 -3.2989492221069566e-05 3.1873940378788996e-05  7.6903407558599911e-05 5.8224749792941624e-06 -1.7620219872062422e-05  -4.1953186708835583e-05 2.3153496261221116e-05 -4.5953765570195507e-05  3.0762539083148124e-05 2.6178687570677842e-05 7.0737599851108401e-06  -4.1397298370629036e-05 1.9628509706110166e-05 3.5121482637305912e-05  -5.0202240996570137e-05 4.2659204469412280e-05 -2.5716650159898696e-05  8.0683217034973652e-05 -3.5418228134732682e-05 -2.1000152469705131e-05  7.3593099696728881e-06 -3.9403969349097574e-05 2.1977346872694782e-05  -7.1072266073029372e-05 3.3578948672764310e-05 3.6703310002083808e-05  -5.2956487176860044e-05 2.9762851641516170e-05 3.2315118387451777e-05  -4.4606823101999813e-05 3.9059681370751264e-05 -3.5329447900319095e-05  -5.3872047012983901e-05 -1.2907870520992155e-05 2.7594967721908535e-05  -5.4098068231723682e-07 -5.3177459434371993e-07 -2.0507235648814208e-06  -3.2573279332684690e-05 -1.4414518641250026e-05 1.1129779031698704e-05  5.3742460435921379e-05 -1.4427625982295237e-06 -1.0505118411492847e-05  -3.3188897384656095e-05 2.4417958444250631e-05 -1.7339505310040987e-05  4.7684863688001116e-05 -2.7009546092047025e-05 -1.7659152060615345e-05  -3.0119005169312712e-05 1.2678695250644834e-05 2.3026756871779670e-05  -5.8764001333591869e-05 1.2319625661961269e-05 3.4612252549484604e-06  5.6506478085903959e-06 2.5210398104019135e-05 8.3276632692529888e-06  4.8256769805917348e-05 -1.7060594206091306e-05 1.0855435074693812e-05  -3.7116137786902868e-05 -2.2124203591679091e-06 -1.5308207368652103e-05  2.4695032794382393e-05 1.2656391463804911e-05 -2.7188682182576542e-05  -3.5987229011180225e-06 -1.8432862514862886e-05 2.1981918635385695e-05  1.9437972691848237e-05 -3.1323899647256721e-05 1.0010972852909431e-05  2.7534868408678959e-05 1.0982615712439070e-05 1.6891797300678931e-05  -5.1509341640086769e-06 -2.8151237188271223e-05 -9.5915951542322867e-06  2.1997611339095364e-05 -1.2891909345388905e-05 -2.3908596044728648e-05  -4.5809817530873986e-05 3.1543190543126009e-05 9.0618643506803903e-06  -5.4740094729608781e-05 1.0744802509466067e-06 2.5794434822947828e-05  6.0567019270248467e-05 -8.4038817672830832e-06 -1.0576070251351216e-05  -1.7786402603091929e-05 1.2745556536048712e-05 -2.6139635063352324e-05  2.1118111873645067e-07 2.6240290120357327e-05 -2.7949407711879174e-05  4.7352182914340043e-05 1.4524749990110074e-05 1.2068743058230665e-05  3.9723810537238150e-05 1.4300878276594396e-05 -1.4034285139762172e-05  -6.4861737457327478e-05 1.4565504417829620e-05 -2.7516006850715432e-05  6.4775725379057915e-05 -1.8809150103767200e-05 -5.7102373476843171e-06  -1.8934141004918793e-05 3.1478978181072938e-05 2.0945631658999507e-05  -6.1354354429042724e-05 -2.4285908562347766e-06 -9.8030037251374428e-06  6.6097386844296939e-05 -4.3211982698970619e-06 1.4700305252338211e-05  5.3909576669639919e-05 -2.6424508525512162e-05 1.2473953797770757e-05  -6.1378719396432325e-05 2.5195859585343482e-05 3.4047738966379828e-05  2.4350345135708362e-05 -9.1742140817590753e-06 2.4399510488538568e-05  -1.1420008207867411e-05 -2.5466275540494080e-05 3.0657246502074376e-05  -1.2082316822071605e-05 -2.7863491297196973e-05 -3.5265505294249495e-06  3.1656948142973784e-05 -3.7054524123787185e-05 -1.9323104418496966e-05  -5.9600634730538988e-05 2.6632376883927165e-05 -9.8230904198075232e-06  3.4855580055749388e-05 -3.0343288685361136e-05 2.9041400480274657e-05  -2.5628633521685564e-05 3.2601522682043109e-05 -4.9681430278210039e-06  -3.5498431350956172e-05 -3.1706388339457906e-06 3.3530356183353163e-05  5.7098730096317280e-05 2.6092021945021466e-06 -2.9274158906797813e-05  2.7748934181276025e-06 1.4353464510319687e-05 -1.4709553044493726e-05  2.6985694670032564e-05 7.4870959278869477e-06 4.1976545537341729e-06  </DataArray> 
</PointData> 
</Piece>
</UnstructuredGrid>
</VTKFile>