<?xml version="1.0"?>
<VTKFile type="UnstructuredGrid"  version="0.1"  >
<UnstructuredGrid>
<Piece  NumberOfPoints="201" NumberOfCells="657">
<Points>
<DataArray  type="Float64"  NumberOfComponents="3"  format="ascii">-3.266081433106088 -4.923042762601404 524.7185162168837  2.285045594590731 4.789716553985609 -524.9323961519079  1277.289761529987 -10.22353801222752 -544.6564575181069  2403.183489921661 -22.1618080353152 -511.9874181515066  3266.911668328174 -28.75849116843805 -419.3299501213239  3805.755095600468 -31.15155365924037 -266.5604554108268  3988.782042634557 -32.00718544932905 -81.93691744360032  3805.672406856773 -32.23620584038015 102.9400847629725  3266.096654422501 -31.22053239593739 262.4976328536417  2400.84648090286 -27.53850966197516 382.3675416344302  1273.226635487973 -18.18198498151147 468.4627126123286  1619.837127426492 -1168.693011302314 -454.1777430950233  1587.497435507051 876.6640670815218 384.5966636321158  3808.847589739151 -1038.752064827383 -127.8646710640584  2787.552641687439 -1139.643002008318 367.0931640472011  3464.40648885101 992.5016779880233 126.0650010653258  3451.339102826922 993.2036316863613 -375.393419913199  1781.690081568845 1016.238170543566 -576.5735808133581  630.5960459476501 -1048.85304012497 550.6434312766102  2772.20452940163 -1049.847990229042 -406.0267196335176  1944.293944503583 -2029.577360184355 -344.6860089679187  2850.393790586981 -1983.300122715812 -260.875607850023  1963.897299601565 -2813.757171808802 -191.107917835792  2739.155522933048 -2636.751758293848 -86.39534138132485  1729.956837147734 -3327.786108261892 -14.17984745055859  2446.880007867042 -2992.040263349913 100.7771979077608  1299.378254927692 -3547.441191287945 173.3119271898719  1877.856493406437 -3098.331624333456 293.3722144160508  695.3594388619729 -3459.345746442227 349.0646110851502  1220.634790457069 -2847.430746017148 449.6249500508285  -20.03700943538839 -3044.476357063147 490.1303968576477  2860.714802243603 -2444.893152091875 211.3719223263255  2751.276675954405 995.8197334708439 265.7896475169667  2757.261425994675 1944.375079800315 137.4227664870953  3320.631340681083 1850.366951899338 -13.62736752395518  473.1413129317009 -2288.402523355646 550.2348855011434  1671.295044672427 -2015.864817391955 480.3229413960676  1906.264550899871 1876.670654161417 259.1625928029742  1811.364244779116 2736.272626570666 124.019342406903  3816.122261917527 -1014.621275327498 50.31047042610496  3371.658261477502 -2057.969404734427 23.30025405171937  3492.344393708201 -1053.898297403454 -279.8225960064373  611.8502862797169 1034.870016287675 -586.3100035205065  2725.876281183022 974.3562225171548 -511.6317825966187  2736.904417747854 1936.009888708867 -452.4932287652788  858.1883111483953 -3360.453336809538 -106.2639583157924  -552.6479902114941 -3487.333798175578 367.1725984173385  849.0428919430238 -2079.883813494162 -357.2734936870094  3298.264973857382 1874.209382766042 -290.4569877444449  2456.410606878555 2724.503618742081 -338.4422097245427  1750.93897470231 2672.28162354873 -484.9766531091211  1363.080934741829 3316.506598737849 -354.5553675041417  591.5872781553346 3137.145999719679 -470.5528254089411  150.261501847049 3601.149514894779 -322.5849184326603  -660.6769417766238 3237.598464763496 -420.4178820655798  -1065.800543745738 3546.16511109734 -251.3458924207836  -1860.97649112908 3047.575974833742 -315.4480803547435  -229.1364225092315 3741.467989581343 -139.9033222526506  -1261.221968029854 -2910.446001911831 485.5270279410569  -1735.828570866256 -3195.958687685604 337.0486493416537  -2170.991220791004 3157.661902522096 -145.7641792191267  -2860.429288173494 2485.558378439604 -198.0799416569104  -3038.01113025321 2476.221139850989 -23.41622400339853  -3558.832824514776 1647.839908232037 -89.40763500423269  -3606.12667077167 1565.548973881906 102.8555780070388  -3181.999091990023 1570.011066039328 -268.5414262003695  -2932.547413849559 2299.029480752463 159.5620937447966  -3762.46001601495 704.317922775171 -124.3490055749882  -3350.214328817927 1296.945560573384 280.2960053797611  -3231.394521558931 466.0688861877228 -285.8921997481973  -3596.157990435453 -458.1539724905967 -147.3061966230034  -2517.624160045747 1942.36458927538 314.960383493134  -553.0476369825687 -1585.769621313563 592.2093625872328  -2396.671191340763 -2472.006227508565 429.1331501652638  -2904.658362184013 -637.8384505370627 -277.3608098093144  -3104.191062862416 -1528.139861340122 -137.2592856679036  -3843.624851342994 458.4679861010154 214.8025612242503  -1376.990366676939 2544.952619005403 -472.201480850634  -2785.52974015172 848.280420340576 424.9295677624962  847.856839007596 2548.95572928691 243.4216311412148  -3682.179401735718 -1238.820083730982 27.28989817911272  -2379.350629640118 295.4589216542009 -398.5468591958794  -1868.502776408008 1490.021517763053 414.4452598779503  -2252.315365098928 -1662.370468797568 -251.6958925845203  -2330.397282251672 -2468.635849477092 -106.3657679561625  -2006.713912747238 2823.403461471659 182.9628344319325  -976.0462912778193 -3607.841315946654 210.6775617111158  -1964.300177189612 266.5412127947625 517.500575276405  -2861.746639728652 -330.2202741964119 488.8635155560523  -1345.106003243762 -2498.419266791551 -217.1680027280218  -1332.448196962488 -3165.863816004987 -69.20602723890013  -1176.13944961775 -1590.525254330002 -343.6789967752733  1995.003958910328 3207.841454990512 -192.8236216415692  -2698.718977458961 -2639.266609730985 275.2257558447141  -3267.858340152646 -1774.5812157956 333.1222363568376  690.3684721202928 3260.76229231858 104.2513128889849  -289.9622760897877 2963.765458078828 214.4552479178346  -115.7865849689078 2248.471034865074 324.9090104310609  -1128.861201090475 966.3326673886347 474.944546672029  -1814.416707727779 -2039.998434310524 552.5890113908364  934.2405436896922 2495.186421919237 -555.8231446800536  -2212.184411115023 -2977.98060229423 45.32605662828554  -321.4910096034882 1939.918862623708 -568.8821210445503  -684.7507879673624 846.0055604390769 -541.3773063740101  -474.7929670002667 3513.432633354157 56.5768570141053  -868.1871197884221 -585.8359129954489 573.4678060782506  -263.159583900645 -3093.513491715946 -171.110946208824  -1860.787598033848 -926.0890261614658 572.4889434267627  -2826.918214865464 -1477.30531271881 480.3466583909653  -3509.797422074148 -689.7020395751142 372.6181151746586  -3815.142577561999 -899.3240691680144 202.1218886224514  -3969.67101094118 -88.95041896193972 33.84729351283517  -1585.542143163035 1659.549542481112 -498.3574184023043  -2376.194619687665 1827.037760218411 -407.894605625004  -312.1681163685318 -3532.186637545401 -30.75960350620174  -163.1291677629353 2804.601955404035 -519.5052739254769  1565.27785913613 3282.753901634961 -20.57690209754725  3469.708189608774 -1009.732774395732 222.7977796974569  219.589159640816 -1087.690925192372 -448.1669526595712  658.8194836562338 -3661.720752321926 48.10353457541819  -1260.688861101978 2438.786137880316 305.4606682356971  3807.022292380515 913.8698123983374 -209.5579800951109  2528.775500859946 2697.612443690819 -16.81599977857827  2983.55908861726 2436.622684882431 -170.0289206986812  -3030.600584837955 -2205.684014288913 9.434158715858201  -1348.839931869661 3536.284695518147 -71.68936815455106  -2243.399292472409 3062.687732409554 29.95256059983504  -196.5942884220927 -2327.217152104032 -303.2791618421213  -955.6382015832561 -414.1280407699927 -457.5401802308124  -2004.2337355512 -660.3089977620882 -371.9832691329228  891.2048835007599 3630.537175433297 -201.9351865295935  135.8124550543107 -3723.387911078599 220.1346821493173  2245.079164170854 -2409.609884118786 376.3519564260411  3812.859484804564 925.7768293902183 -37.67361158306766  1801.119716816875 -1047.229350523382 477.6201606465306  -3355.240190507958 -1970.862160138491 167.102995085911  -704.5850514594607 -2502.868183992991 558.9738010736136  1962.467114808091 1821.860588266512 -554.7593959164129  -3450.318796773931 331.3119452960725 364.1582477055449  933.9759711257465 -2828.720387846711 -242.2596158656698  982.2689690978758 1822.646074078925 329.4409376150068  538.5696030097588 3620.654779049033 -41.1144465566861  -2520.235319249489 2388.880977348234 -325.911536183879  3360.028715029712 -1839.509829963146 -152.3723088621624  -76.8555516053797 997.3636780272655 451.9420320615485  3058.613149707574 -1797.849853467847 278.3473550193507  -3880.052352479128 926.5379131881259 29.23402370381332  -2033.292429965028 -3189.824251907631 182.1968391410882  -1230.737016409312 -3490.371664207787 75.34525514116361  3563.618317251153 1627.25553715627 -145.7905865684737  -935.0712014218951 1890.839294987728 381.2007123526082  1121.488632071389 1700.577526843546 -591.9892950016772  -1390.983528667215 302.4215756201303 -478.0999436723422  -1490.246775943403 3301.052997195162 78.56056810996299  3416.239222698316 -1714.56834465094 162.8030916387244  -243.747707733487 -3716.684414399318 101.8627695944964  -2615.75509008929 1017.331851800953 -391.7514380930236  -1804.63376101058 868.7055571761034 -473.1904778580572  -1153.134398015424 3046.890411685058 189.3130556196464  -2780.820289527812 -2633.33203410456 135.2604816204751  0.007529087966398142 0.1360154124946384 -0.0594584100997302  -1293.846025933186 -1486.517935404379 136.1662899974192  1974.242386395115 564.2316377094656 -90.67338642515784  -808.185075704734 1587.155416480644 51.14097545963843  1490.225900017439 -1136.658339605761 130.495318937967  -971.0388281248009 178.0613032656686 -216.3278726682358  -2040.562434398311 319.6742232796699 40.353109798625  371.4626939613252 1781.517187090232 -216.5791919381682  1391.468612118014 -895.4379635852142 -149.6826100837677  -1077.206054813385 -157.6033678266902 271.1455668616845  1014.356306985765 1316.705466923403 81.0441740496607  -362.8208915479469 -1512.515782200305 -103.786377308588  359.8916141216311 -2186.084739663209 111.7974277110985  817.6946016705364 576.9645420400223 -321.7460595636646  -
[...]
<PointData  Vectors="Tidal Force"> 
<DataArray  type="Float64"  Name="Tidal Force"  NumberOfComponents="3" format="ascii">1.1973800469626939e-13 -7.9872663674712036e-14 3.1067011021316261e-14  -1.2056542881717362e-13 8.0424606799979341e-14 -3.1281693020975785e-14  1.0026238777046751e-12 -6.6881221195626125e-13 2.6013901883448095e-13  2.0053061618178840e-12 -1.3376633846037177e-12 5.2029319169246721e-13  2.7886383114793738e-12 -1.8601944347428112e-12 7.2353516644071580e-13  3.2980590067165721e-12 -2.2000095833485612e-12 8.5570855945461944e-13  3.5013814492263064e-12 -2.3356382428480701e-12 9.0846224094742336e-13  3.3828359087042812e-12 -2.2565610266185966e-12 8.7770462457267521e-13  2.9447927118968528e-12 -1.9643590893778177e-12 7.6405071111763495e-13  2.2103515933793832e-12 -1.4744413844934894e-12 5.7349391687867971e-13  1.2348331564353895e-12 -8.2371017997613190e-13 3.2038762778598606e-13  2.0021181453520476e-12 -1.3355367802093056e-12 5.1946603457613216e-13  9.6769197820038140e-13 -6.4551047189718202e-13 2.5107564994297299e-13  3.9224283811502185e-12 -2.6165026189510054e-12 1.0177063335623986e-12  3.1974929056217258e-12 -2.1329257665587195e-12 8.2961585664894338e-13  2.4884877780209960e-12 -1.6599754426899619e-12 6.4565863964658016e-13  2.3623055995830959e-12 -1.5758041160866973e-12 6.1291963469850392e-13  8.3720232713306761e-13 -5.5846579431826120e-13 2.1721903576137513e-13  1.2929572673285586e-12 -8.6248256116402712e-13 3.3546840684442103e-13  2.9551647166124233e-12 -1.9712778587892565e-12 7.6674181312513171e-13  2.8160698546877053e-12 -1.8784929727075555e-12 7.3065250614707473e-13  3.6036413361686505e-12 -2.4038519196825773e-12 9.3499441043475534e-13  3.3277099934492120e-12 -2.2197886275787285e-12 8.6340175205418283e-13  3.9286048588527337e-12 -2.6206227120449131e-12 1.0193088715480923e-12  3.4638650661443654e-12 -2.3106124922035968e-12 8.9872830651580243e-13  3.9228080228056926e-12 -2.6167558634437750e-12 1.0178048347151835e-12  3.2572962007602595e-12 -2.1728182676184804e-12 8.4513231388315804e-13  3.5293581189142920e-12 -2.3543004139306376e-12 9.1572101820649916e-13  2.7154842847900138e-12 -1.8113961690206482e-12 7.0455475200023034e-13  2.8409996567304794e-12 -1.8951226943994332e-12 7.3712074851328686e-13  1.8766563126194045e-12 -1.2518459687974503e-12 4.8691392925128884e-13  3.9907979495404672e-12 -2.6621093547194171e-12 1.0354453809107351e-12  1.8923092301066286e-12 -1.2622874340378012e-12 4.9097520755072996e-13  1.3130150014594202e-12 -8.7586231186536000e-13 3.4067255108322619e-13  1.8282081967401047e-12 -1.2195280754509163e-12 4.7434366675357806e-13  1.8804186587691636e-12 -1.2543556866552833e-12 4.8789010093209352e-13  2.7565050523840201e-12 -1.8387595611368418e-12 7.1519792784217384e-13  6.3345643816145951e-13 -4.2255466980758598e-13 1.6435548759815736e-13  1.6066629547676322e-14 -1.0717436802984612e-14 4.1686192992709643e-15  3.9552965875529625e-12 -2.6384277479211833e-12 1.0262342602900499e-12  4.1699450061176622e-12 -2.7816115347883214e-12 1.0819265595076047e-12  3.6186858535669751e-12 -2.4138875443896432e-12 9.3889783432268207e-13  -2.0259722960376458e-13 1.3514489758383352e-13 -5.2565519034278672e-14  1.7053308475851101e-12 -1.1375612746244545e-12 4.4246212696884771e-13  1.1655777575157031e-12 -7.7751254039125810e-13 3.0241874441448455e-13  2.6966725540412199e-12 -1.7988475797314828e-12 6.9967389359620662e-13  1.6405532733197288e-12 -1.0943506213645570e-12 4.2565505206609183e-13  1.8812460828900680e-12 -1.2549076297805508e-12 4.8810478293175315e-13  1.7315261218127971e-12 -1.1550351446255643e-12 4.4925870651100962e-13  4.8373160988347749e-13 -3.2267893792833348e-13 1.2550814834212182e-13  -1.3834044581448170e-13 9.2281643820427648e-14 -3.5893567507779043e-14  -8.2629006313855399e-13 5.5118663851326523e-13 -2.1438775903645372e-13  -1.4248292033978534e-12 9.5044930843457093e-13 -3.6968366624897953e-13  -2.0502547603858306e-12 1.3676468832027977e-12 -5.3195547561514742e-13  -2.5713810733334691e-12 1.7152704036689471e-12 -6.6716598750658733e-13  -3.0692665028851211e-12 2.0473908157636176e-12 -7.9634646087817893e-13  -3.4898121131357800e-12 2.3279207792671268e-12 -9.0546048145806635e-13  -2.4238513525762391e-12 1.6168589444337862e-12 -6.2888818696729551e-13  7.0774938981724010e-13 -4.7211266900805765e-13 1.8363140549699773e-13  4.2450751162957699e-13 -2.8317279705625933e-13 1.1014196850766888e-13  -3.7878405470840741e-12 2.5267241995398791e-12 -9.8278641206484004e-13  -4.0113375365417375e-12 2.6758105311231116e-12 -1.0407745458434598e-12  -4.1220128135137496e-12 2.7496377942140133e-12 -1.0694901575508580e-12  -4.1091293332311990e-12 2.7410437150811742e-12 -1.0661474325326302e-12  -4.0586467274546165e-12 2.7073686909913364e-12 -1.0530493048828157e-12  -3.7734287657782065e-12 2.5171106489874287e-12 -9.7904715676488815e-13  -3.8838606827146575e-12 2.5907755758650167e-12 -1.0076996267076809e-12  -3.7433105277772900e-12 2.4970199192276984e-12 -9.7123273197728164e-13  -3.6361201665144995e-12 2.4255173107114522e-12 -9.4342131033903748e-13  -3.1742568894264496e-12 2.1174259049115067e-12 -8.2358708096438738e-13  -2.9218584621456704e-12 1.9490605246351137e-12 -7.5810023122119005e-13  -3.2751296241661016e-12 2.1847142653301245e-12 -8.4975934239346684e-13  5.7802875646229623e-13 -3.8558097386320889e-13 1.4997431929155401e-13  -5.5845287520184363e-13 3.7252264886423768e-13 -1.4489519574666826e-13  -2.2391702887904076e-12 1.4936652388741230e-12 -5.8097116464329147e-13  -1.8612272863648959e-12 1.2415538528733481e-12 -4.8291074137528486e-13  -3.5933326050623258e-12 2.3969753576865996e-12 -9.3231972528605631e-13  -2.8062137732475219e-12 1.8719183560683418e-12 -7.2809526468054239e-13  -2.8445186428446778e-12 1.8974700760439521e-12 -7.3803377842948587e-13  -6.9265620041180410e-13 4.6204457705832872e-13 -1.7971535325614974e-13  -2.5005730373869092e-12 1.6680370590431308e-12 -6.4879425967690117e-13  -2.3520309388817492e-12 1.5689502811605838e-12 -6.1025378939684946e-13  -2.4176164684651899e-12 1.6126998906486837e-12 -6.2727049495809657e-13  -1.0609426766262919e-12 7.0771446211480765e-13 -2.7527031130460050e-13  -6.2431583522582314e-13 4.1645732163551540e-13 -1.6198388291956577e-13  -3.3727997408377842e-12 2.2498662811815307e-12 -8.7510065820033452e-13  1.3038354609180941e-12 -8.6973898989915912e-13 3.3829084372229763e-13  -1.7618487822435824e-12 1.1752622368044781e-12 -4.5712617038088483e-13  -2.2068764120715854e-12 1.4721232233673668e-12 -5.7259225248010979e-13  2.3263759239330059e-13 -1.5518367975530312e-13 6.0359738457211239e-14  6.6834453285935223e-13 -4.4582718934826881e-13 1.7340749097203630e-13  -1.7947315902484602e-13 1.1971971059474544e-13 -4.6565788561441241e-14  -1.7112104260442415e-13 1.1414833175381188e-13 -4.4398763200172244e-14  -7.6076293996364725e-13 5.0747598971636086e-13 -1.9738620749871215e-13  -1.7534382594146263e-12 1.1696518972723492e-12 -4.5494399099611052e-13  -1.2794848557599527e-12 8.5349562839496880e-13 -3.3197287875584729e-13  -1.9408108851937528e-12 1.2946410413512645e-12 -5.0355936123665404e-13  -1.3438097803591925e-12 8.9640433629810251e-13 -3.4866250997643653e-13  -1.4479678755789056e-12 9.6588423559645783e-13 -3.7568718522769329e-13  -2.7213492616470119e-13 1.8153084717615137e-13 -7.0607646852722865e-14  -7.6760622416359665e-13 5.1204088403474807e-13 -1.9916175391942558e-13  -1.8775226743459984e-13 1.2524238857168478e-13 -4.8713871393328526e-14  -1.5475264661265332e-12 1.0322959804631800e-12 -4.0151848112790157e-13  -1.2196182870121735e-12 8.1356091991974592e-13 -3.1644000466283520e-13  -2.4610757036155085e-12 1.6416898916222826e-12 -6.3854635128138966e-13  -2.8813341490242069e-13 1.9220282983940810e-13 -7.4758586457904237e-14  1.5412234412055273e-12 -1.0280914725383498e-12 3.9988310942461295e-13  -9.6034250512646715e-13 6.4060791825510178e-13 -2.4916876865187967e-13  -1.5067733945716428e-12 1.0051111581816321e-12 -3.9094476122702439e-13  -2.5919595979404297e-12 1.7289975538667719e-12 -6.7250525512164872e-13  -2.7762415512679431e-12 1.8519250280365999e-12 -7.2031872495169937e-13  -3.4247425068277261e-12 2.2845153225512527e-12 -8.8857763643778366e-13  -2.4766848162963319e-12 1.6521021363442369e-12 -6.4259626406320169e-13  -3.2482140042331576e-12 2.1667598801376053e-12 -8.4277586322807182e-13  1.7871922963468094e-12 -1.1921679300589891e-12 4.6370175374692666e-13  -1.9036352061615951e-12 1.2698425614054309e-12 -4.9391382527548118e-13  -5.5291400079249638e-13 3.6882787664921299e-13 -1.4345808918424162e-13  3.6875129388240746e-12 -2.4597994722390842e-12 9.5675558818847754e-13  7.2715491905280061e-13 -4.8505735865770925e-13 1.8866632980665944e-13  2.7333858490058129e-12 -1.8233376208720198e-12 7.0919946020462857e-13  -2.4645946897297073e-12 1.6440372732668017e-12 -6.3945938119758857e-13  2.7588753791303755e-12 -1.8403407158545189e-12 7.1581292862943379e-13  6.3630861777822368e-13 -4.2445725022762504e-13 1.6509550907933666e-13  1.1534292245405438e-12 -7.6940871662262760e-13 2.9926670752536600e-13  -1.3665347404797925e-12 9.1156329189735584e-13 -3.5455868795532052e-13  -3.2710022379630024e-12 2.1819610431523205e-12 -8.4868845806575334e-13  -3.7557218895908545e-12 2.5052990661067079e-12 -9.7445296197217440e-13  1.1206972997577135e-12 -7.4757449593190615e-13 2.9077414018589397e-13  -7.0057513596892903e-13 4.6732699743956356e-13 -1.8176998627642050e-13  -1.4572106897294773e-12 9.7204976497812037e-13 -3.7808530944741933e-13  -1.3896004046501766e-12 9.2694951819524871e-13 -3.6054326440465259e-13  2.3496314089311272e-12 -1.5673496460973089e-12 6.0963121159783705e-13  3.4671650282265590e-12 -2.3128137712561336e-12 8.9958450884385611e-13  2.7962019413845804e-12 -1.8652398442526079e-12 7.2549761248466214e-13  2.3026531876666094e-12 -1.5360122634791907e-12 5.9744232535834486e-13  -1.7530829537627082e-12 1.1694148864009108e-12 -4.5485180401978602e-13  9.7437951197757229e-13 -6.4997147103904831e-13 2.5281078563433872e-13  5.2927887413890145e-13 -3.5306178361216568e-13 1.3732576100573211e-13  -3.1394272011370915e-12 2.0941923460620194e-12 -8.1455023161401392e-13  2.4206487345082689e-12 -1.6147225998665752e-12 6.2805724134508412e-13  -1.2980337576703419e-13 8.6586889457375531e-14 -3.3678554405409677e-14  -1.6566783092759396e-12 1.1051070188587371e-12 -4.2983882538886823e-13  -3.6851036744720308e-12 2.4581923437272768e-12 -9.5613048471888081e-13  3.9916983816720391e-12 -2.6627099987086782e-12 1.0356790054397765e-12  -5.4815387849694124e-13 3.6565258031679283e-13 -1.4222303626855335e-13  3.8007678321730248e-12 -2.5353474991911138e-12 9.8614050260069701e-13  -3.9417365663715560e-12 2.6293823741153320e-12 -1.0227160011662181e-12  1.2451272859395812e-13 -8.3057700179931043e-14 3.2305852442880894e-14  9.8062413049004405e-13 -6.5413701827268344e-13 2.5443100331412207e-13  2.1420452985983803e-12 -1.4288768561405400e-12 5.5577128638914056e-13  -1.8405903553494010e-12 1.2277877419843281e-12 -4.7755631973671816e-13  -1.4632752218156349e-13 9.7609518341390322e-14 -3.7965880222139443e-14  -1.5067587929695093e-12 1.0051014180088333e-12 -3.9094097272114801e-13  -3.2230505765562450e-12 2.1499743156809469e-12 -8.3624700476783834e-13  4.0397084494873309e-12 -2.6947356868712472e-12 1.0481356127611967e-12  1.9855793973353840e-12 -1.3245044111524919e-12 5.1517492025352600e-13  -2.9806591139376963e-12 1.9882842004960213e-12 -7.7335654438522894e-13  -2.2002034798965278e-12 1.4676719643982992e-12 -5.7086090529462030e-13  -2.7529227926605762e-12 1.8363699720768610e-12 -7.1426848106717731e-13  -8.6821126286413276e-13 5.7915067461872012e-13 -2.2526455940743856e-13  -8.7609612801627922e-17 5.8441036793009106e-17 -2.2731035258066453e-17  -2.3420969822301869e-13 1.5623237169331101e-13 -6.0767634256564324e-14  1.3815938594802501e-12 -9.2160865677722079e-13 3.5846590034912373e-13  -1.6266622824899595e-12 1.0850844703085987e-12 -4.2205092014239622e-13  2.0029309678708179e-12 -1.3360789831617738e-12 5.1967692806991525e-13  -1.0056853469520207e-12 6.7085440151975033e-13 -2.6093334223322116e-13  -1.9687048124696486e-12 1.3132480181213051e-12 -5.1079667029576398e-13  -7.6628721277086102e-13 5.1116102175858655e-13 -1.9881952555526244e-13  1.7111179492307284e-12 -1.1414216297770594e-12 4.4396363813117222e-13  -7.9117807720794586e-13 5.2776476965633387e-13 -2.0527766523913759e-13  1.3787806174691757e-13 -9.1973205015131193e-14 3.5773598155028136e-14  5.4331101378929560e-13 -3.6242208967184588e-13 1.4096651515289910e-13  1.6210942048763447e-12 -1.0813702177479763e-12 4.2060623656821680e-13  3.0642435517511612e-13 -2.0440401963208186e-13 7.9504321485671658e-14  7.9958860003690226e-13 -5.3337510918846279e-13 2.0745984462391194e-13  8.2530688859489124e-13 -5.5053080021147706e-13 2.1413266630744656e-13  -2.2484423061452465e-12 1.4998502486013832e-12 -5.8337686587477017e-13  -1.3400425670087225e-12 8.9389137171600323e-13 -3.4768507546033968e-13  1.8063398639446761e-12 -1.2049405433225278e-12 4.6866974778610624e-13  -8.0941061107210676e-13 5.3992699875781220e-13 -2.1000824624339962e-13  -1.0232462071180357e-12 6.8256858267248234e-13 -2.6548965196717137e-13  6.6455298350532625e-13 -4.4329799114483792e-13 1.7242374227947883e-13  3.6507412374509475e-13 -2.4352704704073519e-13 9.4721486755655020e-14  -2.2630390410781396e-12 1.5095871746759518e-12 -5.8716410891582241e-13  2.6024727514766243e-12 -1.7360104782819328e-12 6.7523297935261655e-13  -1.4351574033070233e-12 9.5733885732761316e-13 -3.7236340273884710e-13  -1.5705385910890946e-12 1.0476464927941438e-12 -4.0748916638902043e-13  1.9198478517306078e-12 -1.2806573999364041e-12 4.9812032963351570e-13  2.6517142210718508e-12 -1.7688575876838702e-12 6.8800908400294209e-13  -2.4167695755414408e-12 1.6121349606263515e-12 -6.2705076161726841e-13  8.4147086215679158e-13 -5.6131317149978733e-13 2.1832654231255984e-13  7.2901905692519094e-13 -4.8630085405169386e-13 1.8914999572353942e-13  8.6666836023868212e-13 -5.7812146302630992e-13 2.2486424061983816e-13  2.1926836547977215e-12 -1.4626557754068993e-12 5.6890982476830294e-13  -2.8858119736785125e-12 1.9250152847190571e-12 -7.4874767304778780e-13  1.9555244329437150e-12 -1.3044558888082236e-12 5.0737691232471712e-13  -2.0382035714248955e-12 1.3596079939194928e-12 -5.2882869543187117e-13  -6.6697684945950477e-13 4.4491485982944456e-13 -1.7305263425495204e-13  1.3115791772496159e-12 -8.7490452820680781e-13 3.4030001467205227e-13  -4.3491845395083709e-13 2.9011754026182861e-13 -1.1284317319750245e-13  3.7100724141204950e-13 -2.4748480392132842e-13 9.6260882976742977e-14  </DataArray> 
</PointData> 
</Piece>
</UnstructuredGrid>
</VTKFile>