<?xml version="1.0"?>
<VTKFile type="UnstructuredGrid"  version="0.1"  >
<UnstructuredGrid>
<Piece  NumberOfPoints="201" NumberOfCells="657">
<Points>
<DataArray  type="Float64"  NumberOfComponents="3"  format="ascii">-121.2421473140797 -77.84426592550825 227.4219138650566  68.13378081674365 91.49032867343747 -224.5228288960059  4204.901723763061 -497.7265308355727 -634.8752080770545  6987.988120010778 -850.424696533913 -931.2012639560719  8470.688363813133 -986.9797846077399 -1051.628148575011  9221.239681831037 -1024.315824982144 -955.2980337621462  9459.17897906289 -1032.736896257989 -744.6689188502316  9232.2921437613 -1038.514264020135 -537.8648558271028  8475.383234789766 -1031.742314935484 -403.3625970251144  6945.329429825317 -953.3729994334232 -323.4992696489274  4075.612944849317 -641.6297547151761 -133.3550827668585  5369.03115286299 -2364.699341350217 -378.7727342058233  4584.8624446368 641.8898129710238 -474.3216579814962  9318.883454647756 -2432.235670419869 -616.1582786190604  7747.220355332885 -2564.529411842992 -25.7171381253447  8412.170212523271 425.4219822440826 -703.9009566134234  8381.919846849591 441.2440100438405 -1213.191049889912  5051.811459695763 888.3980702615436 -1080.16477330272  2406.447162157484 -1987.067536494146 398.9534145041175  7781.180677961152 -2395.333684125862 -706.5187287587141  6038.107197936266 -3597.387297455469 -234.3839035328194  7761.615665807799 -3638.897868297252 -424.5521337594956  5856.011908149745 -4520.351276780148 -20.29884731623648  7335.305589670282 -4405.645452539931 -128.4233103691899  5203.610831946003 -5012.34351311544 243.5298245457046  6679.087673806352 -4770.229102256921 177.9287039728056  4192.953046148418 -5124.871636065467 538.6501183657326  5532.875438364128 -4802.732678062082 494.7080607257786  2779.44863639772 -4866.973863931303 814.6095397422403  4117.118068708194 -4406.758153942065 704.9187152999696  898.8987455433667 -4202.991617330063 1021.585822154927  7586.632406937824 -4194.770151145255 140.7474255194791  7222.611444840792 513.0783994311244 -632.5416134274359  6636.293297754957 1829.953555239157 -831.866981304883  7698.767078104352 1604.070246531955 -934.4590711182258  2153.93480019398 -3568.463986302476 799.6005016947984  5340.589587778893 -3579.14158888321 436.976247440481  4790.276082567834 1988.011837115357 -728.8073779226301  3968.081903761842 3118.141551941052 -845.499002460655  9328.256790991571 -2401.867769171623 -408.6768476080629  8526.878512331466 -3748.610247371521 -205.9027527698185  8905.198735126856 -2451.196290059518 -744.1426367833968  1615.266689038345 1424.072428743672 -760.5817694552618  7163.759900760861 543.0295943296046 -1233.254480833384  6574.071778450301 1848.338885427718 -1337.253427558484  3249.560944114425 -4829.851651933736 381.305332641998  -407.7015514545792 -4446.688459526382 1073.487934806018  3365.434716125781 -3393.005925525938 108.1292045434324  7629.489062489392 1648.415823120352 -1216.329215344609  5454.220836624711 2893.552802761872 -1267.598673360654  3884.585059714917 3070.902796065621 -1302.001124040379  2528.988362157624 3940.243488548474 -1176.831475582193  606.9524450070102 4062.588426262794 -1126.546490922909  -707.5300499505917 4709.185505545919 -954.5083796489167  -2745.863559424942 4647.777385228375 -847.5474210740138  -3709.895665504975 5074.905684078234 -654.1797004490811  -5545.506062861204 4765.399918053607 -510.9141525584819  -1708.133508179465 4986.838393987628 -724.9103747907998  -2527.267967122847 -3553.56138928673 1251.406819071312  -3516.558957011452 -3698.149768567078 1217.90597409565  -6139.142806132927 4931.05812953355 -296.8790122095157  -7585.150101612209 4266.733340591521 -145.5829157997644  -7879.1721267007 4260.777004074704 77.14826173646924  -8888.377439216436 3250.421594898203 211.9290645502907  -8965.629784043602 3139.781449925105 460.1788206804634  -8334.380136022128 3156.259334858813 7.128086297960083  -7787.054842978871 4048.291901605596 289.851740599907  -9225.549645130635 1983.126533456464 370.7110893583601  -8648.97518299582 2780.580159625676 667.2987828683757  -8467.233908591119 1656.122235749488 274.7338105361544  -8790.45001484356 333.328190729373 586.7754468500347  -7214.319825731575 3583.916013231239 389.4238971231877  -1230.937612811904 -2222.567189273006 900.0348688928481  -5485.916220083021 -2638.396006066678 1330.802097818266  -7648.717496080973 23.61439117953218 552.2756545671335  -7524.143111134897 -1214.146256159331 791.1800101045618  -9303.871523397407 1631.994725834096 817.4841971191181  -4559.308275816257 4130.541622083149 -625.60722514032  -7792.3518336843 2121.484782152664 768.7861106866935  1500.856734530948 3285.047167768061 -644.7289666637353  -8582.366832585827 -752.0230545966199 875.8509152749747  -6919.819674991772 1339.00940717228 233.7835916439448  -5972.043444554636 2891.988613824879 351.1756480291336  -5731.314969313454 -1600.60614682031 731.6731178719068  -5357.381824074315 -2638.985942373863 879.6776626406687  -5956.207271654595 4559.405802383791 20.15105581940708  -1431.95528007551 -4403.491782610847 1008.880663627968  -6071.468211423838 1108.779267562552 747.4828277555911  -7696.16050082733 411.8133011480378 1104.588616068154  -2940.954773314003 -3024.984048202604 739.7314827523066  -2532.430599140253 -3808.008451265373 838.5382817126554  -2991.75731304332 -1878.725928876662 561.9634532084657  4122.970688751176 3582.980314965998 -1106.257529929394  -5999.005639806895 -2747.23245380127 1224.194524834944  -7639.806437581269 -1524.660117738548 1257.256451842606  775.1747927517849 4155.578245880214 -712.0430524533563  -1859.278175803312 4232.962337374007 -428.5291276471283  -1246.768641730199 3325.600979371004 -355.5798202167052  -4044.280710184187 1930.870925588946 282.4872551835992  -4451.075761283911 -2302.863189177849 1287.087816267396  1838.868644578678 3209.853445872366 -1172.449040206882  -4737.180274197602 -3294.260178567117 997.6846731555265  -1652.29860088195 3075.804089024966 -752.1647480626625  -2516.048061714122 1710.103861605549 -317.1506819188759  -2343.164095076098 4862.064434821953 -508.2973955511527  -2696.331522430414 -624.8540541272491 705.4754142986955  332.6734617268467 -4163.630248706722 592.3245933693397  -5266.507651721656 -740.005755305617 1073.913655244569  -7041.22688459065 -1229.796182034301 1309.900675842442  -8563.7144256804 -20.9649070185473 1170.443730727776  -8910.079724202425 -284.4453784572997 1027.272806918121  -9378.006291223475 863.0069799316772 698.9116894914872  -5169.59626518289 3122.24887839528 -360.1617823862418  -6890.871663901309 3451.466075097091 -239.2860781620832  270.9919961103182 -4592.102978020751 698.5329537008611  -1374.466292169845 4015.171705378189 -956.0178360874158  3037.271998527543 3826.260900439923 -920.2246781727811  8857.420954156722 -2405.050126713412 -212.737469786773  1225.572867570375 -1748.220587696897 63.85771225117675  2715.964227770427 -5054.712261761853 561.6492531257534  -4422.790058971645 3968.222712932132 -59.18412031433095  8926.163985034715 297.4917885888676 -1038.468373034451  5631.072267822841 2836.977822041279 -978.7258478753305  6704.867784746814 2411.924649249455 -1118.418885941891  -6944.506654990337 -2122.588427672362 966.7982253308933  -4360.771493254323 5148.138345947832 -423.7398687347863  -6318.017776991461 4844.480388211596 -90.02717717729864  322.1847204475892 -3302.08991175646 468.0175093674063  -2902.816699853141 -172.5544370193971 196.9479983274713  -5753.491242853096 -186.4302457542934 474.9674816174838  1178.952814194061 4450.306945089607 -980.1463934055818  1407.968916405619 -4935.216137620069 824.7183642357306  6463.00221047353 -4112.824166422114 382.0644931982218  8934.049443067535 311.3206080965074 -843.4962808181419  5669.702877146223 -2325.408487964859 121.8091910186762  -7678.049073748626 -1754.216004685049 1102.841209429557  -1217.988089235267 -3322.145658298007 1127.019782688492  4970.973864908688 1939.386407617376 -1274.529710401447  -8763.596383726768 1434.100796448713 961.1390515613733  3524.918504109066 -4304.997516499659 236.4624242764599  2264.242680709229 2286.306342618564 -569.0333133904298  257.9816700102299 4582.66408531941 -785.3921124428341  -7029.885159284782 4137.984512895322 -295.223568542967  8579.958318703208 -3475.467383522946 -441.3512417966302  -758.0581907856058 1545.845856518726 -78.26584867704156  8096.698522172698 -3431.953267523184 52.53124822948389  -9375.963845398544 2283.675788066083 509.1468645582664  -4196.334519135413 -3593.798782299855 1103.89989918042  -2114.299497157107 -4189.614862147227 928.5542147270961  8222.900348822503 1279.151966055352 -1044.474108073263  -3604.441697638973 3179.845819490236 -32.67624813755347  2838.088954387967 2116.675942332092 -1083.253324127973  -4502.188122467712 1135.905824125289 58.95764832658516  -4744.429455451347 4955.633297388665 -236.3960364182508  8668.352844759949 -3321.37212368658 -116.056848909625  467.9015092760699 -4796.273308133861 791.3600819441025  -7463.845308341833 2414.569679320893 33.0576786707193  -5668.49059902996 2083.972675212263 -63.43946085387036  -4050.611496738731 4609.005257590128 -219.0067011558309  -6167.106513749594 -2715.224767002645 1093.839693113147  -19.77392868989539 7.736224467382507 1.165680647060892  -3435.197215963517 -1726.972544622102 824.4846548246139  5778.305497704356 101.1027994179337 -724.7420221367859  -3166.493769116795 2759.342282903966 -192.3429751153957  4980.175659690392 -2357.804858172931 -4.872019471133125  -3269.189150576386 756.8263655533651 131.5243066782942  -6244.38518091553 1269.948332316036 465.2634367622803  483.604261032408 2553.926192389834 -706.4930042397129  4739.205076361745 -1945.131480430842 -208.1688065186596  -3506.668745347667 186.6387731931755 494.4847488531331  2697.943363422642 1570.811075640235 -616.7849316432512  -550.5817400506545 -2147.874770197972 483.8384307885443  1899.337646014513 -3387.009134614783 539.8744098413517  2499.535608092511 591.3600817067442 -563.8329659900259  -337.37092
[...]
<PointData  Scalars="Pressure"> 
<DataArray  type="Float64"  Name="Pressure"  format="ascii">-4.3796444028087494e-01  -4.3474624620496821e-01  -3.6104559579222606e-01  -2.2518444353840195e-01  -3.3743969720452141e-02  1.6052211509679427e-02  2.9269324944492258e-02  1.0048084835036280e-02  -3.7188118179323854e-02  -2.2667658977555546e-01  -3.8247417058657834e-01  -2.6295318944459545e-01  -3.3698609707898103e-01  9.3118987215676310e-03  -1.3957076059401727e-01  -4.6227767924221952e-02  -5.9100092936537625e-02  -2.7549897724441985e-01  -3.7723462022415427e-01  -1.3011032470105863e-01  -1.7727349624785935e-01  -7.5746243439329869e-02  -1.2977704478378060e-01  -5.8244341709952824e-02  -1.1219624105965692e-01  -6.5166552913886566e-02  -1.4101701425498842e-01  -1.1573053397690657e-01  -1.9231228021573746e-01  -2.0085593814576103e-01  -2.3802433039783677e-01  -4.4920398158146968e-02  -1.8262377677271222e-01  -1.6358550506165087e-01  -8.9059642957663276e-02  -2.8638904712166974e-01  -2.2048426609497529e-01  -2.5401006495238526e-01  -2.3113591161349067e-01  1.5992817225889119e-02  -8.9696405813377827e-03  -2.9340723066329438e-02  -3.9014915430900160e-01  -1.7137308369785678e-01  -1.4284522649952139e-01  -1.9530677576117880e-01  -2.2999009933151723e-01  -2.8349150718284272e-01  -8.4560069597401213e-02  -1.6186337869685685e-01  -2.2976409945486162e-01  -2.1497770355060170e-01  -2.4014874403171924e-01  -2.1380217526133685e-01  -2.0502091059969912e-01  -1.5783108796081616e-01  -1.1226270596001069e-01  -2.0044829790304708e-01  -2.3322180270969731e-01  -1.8940794664479293e-01  -8.4385088716648099e-02  -2.8544261457921643e-02  -1.5209463800023977e-02  1.8328282152036118e-02  2.3688806960170856e-02  -1.5943064379904094e-02  -5.7826906066082220e-03  1.5117571638681404e-02  -2.4690173433876382e-02  -3.1597190411530245e-02  -2.7508682846350007e-02  -8.8334719810206283e-02  -3.6787364416097523e-01  -1.7861639223049433e-01  -1.7608388577312323e-01  -1.3543760502506347e-01  3.4639383769683160e-02  -2.0019511072031540e-01  -9.2474478564632645e-02  -2.9050644468338443e-01  -1.4637788660348802e-02  -2.3793314686894190e-01  -2.4609443438796985e-01  -2.3382228999768029e-01  -1.9126920718837315e-01  -1.4677282791100371e-01  -2.2161447958901134e-01  -2.8443295994389395e-01  -1.5171777568847516e-01  -2.6915690207730508e-01  -2.2851115909519693e-01  -3.2503542655777390e-01  -1.9191882877289854e-01  -1.5631112370927203e-01  -8.0706916220032732e-02  -2.5233958333425266e-01  -2.6338757536705493e-01  -3.1361227316353979e-01  -3.3284347363227829e-01  -2.3417397805742043e-01  -2.8148518462204264e-01  -1.8132850096964340e-01  -3.3129179897271455e-01  -3.7522912578590562e-01  -2.1213438893091022e-01  -3.9691249960079822e-01  -2.5993237854589135e-01  -2.7049046189366321e-01  -1.7361183288092089e-01  -1.7464276715709614e-02  3.6749052607728031e-03  3.6425392456668419e-02  -2.4614542220313673e-01  -1.5115270281256507e-01  -2.2714804279890488e-01  -2.6488020014416086e-01  -2.1973346938965951e-01  -3.1029770403943713e-02  -4.2339996364000826e-01  -1.8763695334360331e-01  -2.3791103143972436e-01  4.4568092717593389e-03  -1.6233641312919125e-01  -1.0870259572628965e-01  -1.3291471019529641e-01  -1.3559932444679140e-01  -9.0751703798416683e-02  -3.4642141790038883e-01  -3.9834605050526717e-01  -2.9671459903565395e-01  -2.1498416545603602e-01  -1.9248013687897494e-01  -9.3599278843630229e-02  -9.6465266945441192e-03  -2.4828145470922997e-01  -9.0662959211372629e-02  -2.9620860327324383e-01  -2.3512728706671324e-01  -2.4672047743368782e-03  -2.1998850237117193e-01  -3.5117330777829298e-01  -2.2220046308209501e-01  -8.6505079485574177e-02  -2.6782447617632082e-02  -4.1445980534611065e-01  -5.2239899706103779e-02  4.3366287172225834e-02  -1.6442246282415501e-01  -2.1647918763756863e-01  -6.0313453481731255e-02  -2.9504957197567999e-01  -3.2365290734270724e-01  -3.4034943587795613e-01  -1.3067082123759327e-01  -2.3480095178883463e-02  -1.9714990724290782e-01  -1.6019812577688405e-01  -2.5937756716676885e-01  -1.7063262418904959e-01  -1.6075782004006167e-01  -4.4959635526546116e-01  -3.0576694359022066e-01  -2.8603604865573923e-01  -3.2160315080260460e-01  -2.9860960053155655e-01  -3.8845389788173834e-01  -2.6242749848469615e-01  -3.4224643574208397e-01  -3.2188427606271636e-01  -3.7707135474945497e-01  -3.6084451942146317e-01  -3.7746919243101235e-01  -3.1040719434079628e-01  -4.0598483650563516e-01  -3.6697634379439159e-01  -4.1937833096788052e-01  -2.6878718916503991e-01  -2.7968315087882190e-01  -2.7434332498386499e-01  -3.9434685861727681e-01  -2.9730931538405392e-01  -2.7809695939782564e-01  -2.6090545689556344e-01  -2.4417246223850209e-01  -1.5246207735843148e-01  -3.4679354997282008e-01  -2.2221762295649977e-01  -2.1438336629611596e-01  -1.8914684689220951e-01  -2.1786973564733778e-01  -4.1438946399400761e-01  -2.9741391978494897e-01  -2.8332114015681598e-01  -2.5987125742934558e-01  -1.6461212013332302e-01  -2.7828493881372213e-01  -2.5401686034588022e-01  -3.3774774526594331e-01  -2.2747571691665372e-01  -3.9746612095245770e-01  -3.8980389442216395e-01  </DataArray> 
</PointData> 
</Piece>
</UnstructuredGrid>
</VTKFile>