<?xml version="1.0"?>
<VTKFile type="UnstructuredGrid"  version="0.1"  >
<UnstructuredGrid>
<Piece  NumberOfPoints="201" NumberOfCells="657">
<Points>
<DataArray  type="Float64"  NumberOfComponents="3"  format="ascii">-71.37267907296631 -66.50987298190546 110.3838757246654  43.42972802374493 72.87612388045152 -108.3445828436058  2406.272450869569 -232.9084549375259 -359.8721978164403  4002.44512026736 -426.2422836118761 -543.4090172800611  4842.846080070868 -510.9924215339093 -624.6216983378612  5263.550768420127 -538.8345053994285 -576.2413796528122  5396.607287926538 -547.5115706782475 -458.6093342875094  5270.106947170801 -552.506566313133 -344.5754562027005  4844.276606354478 -550.5300297127808 -274.5456643787392  3972.505641010272 -512.8442654590856 -232.2373783673639  2327.754190379114 -350.8404618867622 -114.6760848089158  3036.652010355752 -1463.263676440954 -143.5533088856937  2639.967761513962 533.8851425808723 -372.7976762662173  5307.624636728799 -1416.206095904934 -345.8921821069101  4404.584639542616 -1542.085166049321 -1.611704331007305  4807.64974146697 376.5806380100966 -482.1759933816662  4789.543862742367 391.6546071596556 -764.8659844174324  2908.44191329619 713.4072040143692 -689.9109614063675  1329.619550721907 -1314.998826056696 279.3384616669521  4432.303812126455 -1420.096749489704 -368.7053386428578  3391.847722337115 -2240.709871069171 -32.25362090591847  4391.871838181641 -2203.828164045204 -176.0527719640834  3261.34792874844 -2812.435405014027 105.0815544917744  4124.204603928867 -2685.520530879875 11.67866605193808  2869.018125049432 -3129.29325879729 269.4900993412861  3732.734920855754 -2929.944728872114 203.5101108621002  2280.742007640986 -3231.001767402248 453.9983168855795  3064.020388457474 -2995.30396844424 404.4655415981226  1475.38050500027 -3122.635237667316 625.8595930228241  2252.623467807441 -2811.849556995021 535.4717986576198  420.7215540374751 -2768.00396415851 746.1651081429192  4273.66177141268 -2552.022584800482 153.364067743205  4138.003737258086 448.3368749695549 -456.9095759282766  3797.361776778302 1292.412312536602 -599.094397261284  4395.194301698365 1126.285615880782 -639.9377638309458  1146.173409645222 -2355.316695439445 582.660613539775  2982.064120501554 -2265.928475603762 333.7594347469629  2761.233194453332 1415.665379519383 -557.6220719193287  2297.682147527027 2129.015632838912 -641.4243522804744  5312.583819992557 -1399.476888425276 -230.6459846136713  4828.786738082933 -2246.397041939584 -68.47938264954448  5074.242295777852 -1433.038996080048 -410.2667663466039  960.0342997457624 1033.153935310794 -503.6564094124628  4104.102220977299 479.9267401835231 -776.1096520540054  3760.385114902186 1308.400916156045 -878.6582340629811  1745.573179339163 -3087.141453209763 374.2774463938082  -316.7970960055621 -2929.482887412372 788.591520752286  1847.647145306025 -2198.033914573271 198.7429385165045  4354.593446605904 1157.285764106692 -800.2574322117332  3123.939344191569 1970.490915614457 -866.7500623185846  2249.626290035414 2103.583201292092 -895.6293354105669  1495.245256112753 2633.303062709088 -840.7234571711545  425.1630624527494 2700.144164635908 -811.133641659382  -306.4873626176908 3065.370716240335 -715.9803369557667  -1460.93298862461 2992.112645172659 -639.1654899087355  -2006.522043825486 3214.832641488157 -524.6383275229201  -3075.234804895501 2974.958343071426 -412.5245497043517  -866.4957586281533 3211.404692969072 -580.2443111891605  -1493.26700632798 -2402.083379081628 876.4124518007353  -2043.910781587035 -2481.211070843622 858.2547847744677  -3417.857818859588 3049.234710125436 -283.339199937351  -4273.916858370989 2600.33984897749 -159.9689684874748  -4445.271000172832 2583.144648634773 -28.87095204656195  -5048.126670596994 1934.730541567558 89.65905087375536  -5094.418383172409 1862.859987830254 232.6599333083186  -4730.700572258818 1897.776665447465 -28.18625922966567  -4398.193083679855 2457.147928524486 92.84497242778879  -5256.811820170239 1145.967522169805 220.735529548197  -4921.190799646057 1647.323962534736 351.8570888983229  -4831.775479569981 950.794348126369 180.2831078343686  -5021.499999830056 106.3623083610925 394.8460216113618  -4078.772009078325 2192.691937721914 143.6788052072302  -755.7684761981974 -1556.226715381854 616.7486445099153  -3149.434921035178 -1815.352696714465 898.3985577280207  -4380.282600356691 -100.1254699181999 394.8686226132023  -4305.014663537238 -893.2353488615294 559.7654600086532  -5303.490218903858 921.4403855775823 480.9226537172272  -2517.971760348478 2629.094806436617 -473.0913091411163  -4443.891214130536 1246.326307483317 412.26779085242  921.1714881778554 2230.665900675885 -536.4625757303143  -4899.725752401249 -580.7145489811431 584.741814941127  -3951.741012378938 764.3913565257114 166.5944915438802  -3373.386443350882 1796.918754975604 116.0709650707328  -3296.052286022937 -1162.385108834906 547.8404280177188  -3079.974221769709 -1815.255496244331 646.691431784527  -3321.711030197899 2835.282663325647 -104.3384024823689  -886.9188466620709 -2908.413705258427 749.8854177128648  -3472.248055142883 607.6410071969035 417.019829910839  -4406.664894253377 138.0773149770474 668.9280328334469  -1726.402331523838 -2071.768193659999 585.3546656425407  -1497.955611756912 -2552.986446632466 647.2805503741298  -1749.763718330971 -1340.222047593152 459.6419147087703  2380.729166329969 2407.999896295406 -789.7883663222343  -3435.063583749766 -1870.444912739481 836.5303290090998  -4365.395651365631 -1086.993960060584 823.9901311126471  520.5430519272227 2756.035902839844 -579.1716761416934  -965.4740643947873 2759.995489730782 -409.2814116265708  -635.2103147492617 2208.368738860318 -357.8936079288193  -2279.534491897115 1213.786781737302 87.86168944446869  -2573.498754356603 -1622.758967436531 862.891864232327  1108.192483135055 2193.464140149767 -819.1825224745921  -2727.131918955521 -2223.101199697433 721.1981436048753  -870.8282334098584 2052.666388577876 -540.7773310875054  -1401.730521963026 1123.541856412206 -216.5166258180713  -1228.598408841038 3126.019021618691 -453.0730023117908  -1562.54008421352 -511.7463935275728 442.9534963850002  101.7595216640674 -2751.441334630743 511.7666437031885  -3031.691101673822 -617.8318796321337 682.0381230945193  -4033.350304970251 -919.4042737656553 845.7575846089746  -4893.144370636885 -126.6558607061231 728.1552305961172  -5085.222736031027 -283.3514934279065 655.4504025236937  -5348.347348864809 442.6799125364529 437.4280049563571  -2898.438433248106 1981.413193427318 -272.8224700903398  -3889.305346800281 2132.055464084443 -195.0289904161696  61.34276226274199 -3007.665574925393 571.9746085169235  -693.4001894974012 2642.252406561722 -696.8073461494647  1778.79896082892 2562.437966551231 -690.2601828027194  5044.973998367886 -1411.614872804436 -119.7007015349702  658.2003409641192 -1169.808478258014 136.3504171783038  1436.134258546243 -3232.808953897601 481.6434758788726  -2446.048717323605 2527.540640143117 -168.368415583155  5095.38380478356 289.740507931891 -661.2499552965037  3224.583612839989 1931.602727214854 -700.0251858539093  3827.7946235929 1647.757341419901 -764.2710517817425  -3971.497381811427 -1469.551211406423 675.5972608091876  -2381.08408207912 3237.447770322155 -385.040393524493  -3524.761070148354 2990.63619629638 -161.7689410258693  108.1820690289779 -2216.493041934087 430.3414236461142  -1670.52869100021 -186.4577278262126 179.9675071419172  -3303.500150412714 -238.5268608617565 359.786987464436  747.1599085428314 2934.116572239825 -732.5379485933488  697.0943516539005 -3190.697305014091 641.6253473116348  3621.013009139156 -2550.365328635966 306.1053379398529  5100.120870590054 297.1031943366626 -551.6546749674411  3207.772768062479 -1445.172063796824 93.85951254484286  -4384.871908392522 -1226.364945148356 740.5213200185833  -760.4648792121543 -2257.923128781332 792.5949906626081  2861.187357051435 1392.677295570802 -844.8465957524091  -5002.505379360229 795.8077794099873 561.6940736997283  1916.096919138125 -2764.381280909886 286.6534555917692  1340.69303808169 1602.004863182417 -474.4526758706199  234.2604633772063 3003.576025105267 -619.9598682822968  -3954.142851555162 2546.335378747372 -249.4415013463722  4866.761061988544 -2076.037001659352 -207.5372619280973  -396.7764298084233 1043.086181027928 -140.0475083289063  4586.23743658517 -2073.24361924434 72.78842589867264  -5338.296298032845 1328.740758478425 289.1331316325924  -2423.065108145305 -2410.725037489832 787.2573359385798  -1265.563324830897 -2781.729020206295 700.1978565571342  4692.467607299024 912.226781074678 -690.5075885558867  -1993.204887865699 2051.47843310935 -144.6733806478256  1663.149235658826 1508.272418598635 -731.9159012980019  -2561.619090731821 680.4484316468372 52.96701182750537  -2608.119644836229 3112.447636684502 -272.0767634589526  4918.535601281824 -1983.52191030968 -32.23797801727864  169.8245141772312 -3124.704638881794 624.7205089176613  -4245.445961777144 1459.629149419911 9.592596999793736  -3212.898328577458 1289.936531079655 -50.18195069521517  -2214.408803069916 2928.935248321613 -270.9521870097919  -3530.019647010131 -1847.080122314946 760.1184800850605  -9.679492012421484 3.426160042025141 0.8457853248546999  -2000.352179392555 -1250.903813682963 587.5592432216114  3317.998184387823 189.9415467500152 -478.4039352551162  -1751.202361294673 1795.786985593172 -212.0328914247992  2808.995045374998 -1481.247867169354 48.69304808495318  -1860.718099730957 444.6013094732496 85.64753289063179  -3566.541131351126 723.3813608888975 273.3944858456207  337.1297271609038 1757.228919178177 -529.5085190866478  2681.677568717465 -1207.281506287479 -70.30937161715353  -2010.805921160056 35.98754481028851 302.4294924371624  1578.288194256108 1138.078661739308 -467.2462202849549  -366.1232671406935 -1483.356784492085 397.5382799411278  1005.412295726045 -2242.563385023512 445.7985727363713  1448.022376592986 478.3180650081253 -369.239420217266
[...]
<PointData  Scalars="Pressure"> 
<DataArray  type="Float64"  Name="Pressure"  format="ascii">-1.2822698415130349e-01  -1.2860391758951178e-01  -1.0891954884495775e-01  -7.5025919617220896e-02  -1.5591376420395524e-02  2.8183718668535533e-04  2.3717737363927681e-03  -4.3493629974987883e-03  -1.8451724192919072e-02  -7.5068252494171706e-02  -1.1683582424708019e-01  -8.3234857162763201e-02  -9.9423025398957185e-02  -2.6180883274275757e-03  -4.8198134232155972e-02  -1.4897146303083461e-02  -1.7621264184120425e-02  -7.9986018091469130e-02  -1.0582866637705267e-01  -4.7150091938998114e-02  -5.8103715454015686e-02  -2.7115778801516263e-02  -3.3310622342721988e-02  -1.7153120158932927e-02  -2.5575944390850390e-02  -1.5981460358995003e-02  -2.9137649154634244e-02  -2.6871075223471850e-02  -4.0472291593593050e-02  -4.6694806519488492e-02  -5.3891923593351022e-02  -1.5629647789629504e-02  -5.5051347501660713e-02  -4.2657426042549039e-02  -2.3144560821803748e-02  -7.6865800477771432e-02  -6.5899862611561111e-02  -6.3513725065018858e-02  -5.2383751207101162e-02  -9.2975261486371167e-05  -8.7952917829830363e-03  -1.6840612531751023e-02  -1.1029794925419167e-01  -5.0141060134004226e-02  -3.5923978432875342e-02  -4.4634063918813367e-02  -4.7236008723909782e-02  -7.7711407013101419e-02  -2.0487357297511475e-02  -3.3771129747396267e-02  -5.2090095145842320e-02  -4.4036740014911140e-02  -5.1752080497432101e-02  -4.3347210218358440e-02  -4.6094898205979791e-02  -3.4361723647502757e-02  -2.7589159986844844e-02  -4.1010993264201025e-02  -5.2162947550471662e-02  -4.0416534307326148e-02  -2.0524326254664622e-02  -8.7892010049732978e-03  -5.2321145388128472e-03  -2.0978827155049063e-03  -7.2647970153619571e-04  -1.0804318309821821e-02  -2.6645104095267538e-03  -1.5267614447529701e-03  -1.4971345344324824e-02  -1.5575946644338113e-02  -1.2684597435310632e-02  -2.5180390762369782e-02  -9.9826720593690604e-02  -4.0554588578817947e-02  -5.9646618794540987e-02  -4.0304879241407313e-02  2.2391894971838752e-03  -5.2152601655455218e-02  -3.8484161260416656e-02  -7.0949724527584912e-02  -8.4228168269067632e-03  -8.0965449871853820e-02  -7.6527300861992012e-02  -6.3489789907878513e-02  -4.4975610022562125e-02  -4.1587410882695804e-02  -4.3750639788812017e-02  -9.1987846198204701e-02  -4.9975336933624485e-02  -6.5947402072183373e-02  -5.0885213293871794e-02  -8.8682652992627037e-02  -3.9560913568682403e-02  -3.4018446264967431e-02  -2.1643353332672682e-02  -5.6272846927727833e-02  -6.4189756534434442e-02  -7.8962582548821603e-02  -1.0093830764397126e-01  -5.9128895817971247e-02  -6.8206226595245265e-02  -3.9823664509397526e-02  -8.9091027918391102e-02  -1.0692347184264545e-01  -4.7711347434967112e-02  -1.1603410500393128e-01  -5.9639899630161440e-02  -7.7757639177237395e-02  -4.8515930778980629e-02  -9.3420157103005930e-03  -2.7417837631336802e-03  4.0714648685698752e-03  -7.2409606663804332e-02  -4.5373258862956282e-02  -4.6081374028697032e-02  -6.1572446129740145e-02  -4.6312946029997006e-02  -1.8052863458530306e-02  -1.2036130332310212e-01  -3.8683294605169491e-02  -6.7263530446600286e-02  3.8954426401380986e-04  -3.6788355520580865e-02  -2.3799613848414725e-02  -3.0047903740971476e-02  -2.9919881245269463e-02  -2.3835530741456321e-02  -9.6003939284910092e-02  -1.1715650007772595e-01  -9.3866290774363606e-02  -4.3060977625110138e-02  -3.7888130405698314e-02  -2.7097620221566962e-02  -5.1273297249533265e-03  -7.7220402455458331e-02  -2.1649276414761550e-02  -7.0325729327462935e-02  -6.1874404552938161e-02  -8.9369181366998982e-03  -5.2555911920971490e-02  -9.5870704830979328e-02  -4.5675550393761734e-02  -2.4714435182918604e-02  -1.4083626112371262e-02  -1.1880050925438736e-01  -2.2147021353799975e-02  7.4663443066427743e-03  -3.3859236607720840e-02  -4.3920201464066909e-02  -1.5474474582867775e-02  -8.3584271885866604e-02  -8.4496673145677353e-02  -1.0501087524280089e-01  -2.9630746609089181e-02  -1.4307170382823234e-02  -3.8143944660962034e-02  -5.4877561309586022e-02  -8.0417315500373635e-02  -3.8805890272076697e-02  -3.6743799650833388e-02  -1.3204183978696427e-01  -8.4691404178002846e-02  -8.7796867417330449e-02  -9.1407217834555063e-02  -9.0409383734313301e-02  -1.1730814213731473e-01  -8.7730974512548618e-02  -9.2433577542342105e-02  -9.8899385406876747e-02  -1.1498786990683089e-01  -1.0145928069643893e-01  -1.0439426675688251e-01  -8.3564933162409052e-02  -1.1979136521974459e-01  -1.0008541407212163e-01  -1.2312821804577528e-01  -7.8449430410337612e-02  -8.5009187807577866e-02  -8.7977628000676114e-02  -1.1368828520959896e-01  -7.5103439115429577e-02  -7.7320520023440281e-02  -6.7255599138163272e-02  -8.2045299008939157e-02  -5.5582461734181812e-02  -9.7406549073331350e-02  -6.7423511335251152e-02  -7.1069978774625814e-02  -5.6763699278433999e-02  -7.5632797884390049e-02  -1.1739794030320903e-01  -7.4727987043678543e-02  -6.8818277286953666e-02  -7.0789110733084123e-02  -5.0633132074463558e-02  -7.7220182615571301e-02  -6.3707303282820787e-02  -9.6785387160157693e-02  -6.4278753460085533e-02  -1.1459462600699448e-01  -1.1537040196502193e-01  </DataArray> 
</PointData> 
</Piece>
</UnstructuredGrid>
</VTKFile>