<?xml version="1.0"?>
<VTKFile type="UnstructuredGrid"  version="0.1"  >
<UnstructuredGrid>
<Piece  NumberOfPoints="201" NumberOfCells="657">
<Points>
<DataArray  type="Float64"  NumberOfComponents="3"  format="ascii">-0.0003985214330972405 -0.0003312388306796757 2653.588042896601  -0.0005565324304059036 0.00325721449496179 -2653.588064902539  140.3686139687227 0.004477528752186102 -2523.702157328825  266.9871762679292 0.005677847224321134 -2146.766495619301  367.4582126212945 0.0003728927028384074 -1559.696793856309  431.9541780918541 -0.0009439185104831666 -819.9722518685428  454.1780557676523 -0.002166081909810932 -0.000405276909985045  431.9537920908527 -0.000456926627124525 819.9725570108704  367.4573693400417 0.00231522892240656 1559.694210151136  266.9877647077062 0.001385996373655904 2146.76496542327  140.369101841973 0.0004075726167332395 2523.701766736137  177.8381114728834 -829.3600923144087 -2307.043895317002  176.6770653745033 644.2227555697476 2364.361616703373  432.3248666423805 -738.44409659446 -393.3608600150916  311.2937823653061 -805.6993187151081 1769.32876871812  393.2319525310713 746.8445137892353 1115.749110987912  391.597449567765 746.8360225704092 -1135.211184490915  198.5757585988652 742.3496932815561 -2276.675288882819  68.42611631792514 -742.3119291454018 2523.728407193763  309.2739139929037 -742.4062963634962 -1806.75602400088  215.3017501392974 -1456.559854690986 -1867.224681241085  319.8832702524829 -1427.757845794831 -1286.008373460437  219.3672455952122 -2040.860497129344 -1235.245114282959  309.0716168565393 -1915.441111353373 -608.3065166621172  193.9588580603441 -2429.783456454491 -516.7320599830961  276.1549791078276 -2180.67113038496 130.709831453126  145.0714889439922 -2595.929643012192 235.8336098699269  210.4087372174396 -2255.301267048159 894.656752654209  75.80040726494224 -2527.137657258911 951.3847488964577  134.6505595197058 -2061.351037069778 1571.844992168369  -5.232580088437434 -2214.20161397212 1574.895050814962  322.6358983699516 -1771.819797301683 754.9776505565632  309.2740461186055 742.4057402103009 1806.756885637299  313.3880556238273 1437.169151505279 1330.091437610442  379.5060636544423 1377.24273296603 602.0027720542495  50.36650472068048 -1645.191630317468 2106.513530140738  184.4272724577093 -1442.732347349498 1986.178824403114  215.2778630277409 1373.485837540503 1924.974438031686  207.4554929711893 2009.306271050984 1348.371005461122  433.1518162712036 -720.4461007097029 393.3101280035213  381.9386484486229 -1488.750497851704 45.54783249133676  394.1020360810427 -747.5116587604768 -1104.794793090318  68.42570893826439 742.3155247615711 -2523.731223654439  306.1969123943106 723.7795636271512 -1831.510903101419  310.989675907032 1429.430816325694 -1356.78532891208  94.1286801649116 -2451.733848662335 -1071.513195652504  -65.85582967826581 -2557.15697217095 900.6671734900051  91.85355705991873 -1493.877659170363 -2162.841617135469  376.9127095235146 1393.661533784835 -622.1251757627662  281.8947206446861 2013.223516879313 -748.8594272432617  200.1626124566654 1959.243211903986 -1450.615026516468  158.0441725331473 2439.998936196071 -807.3862786870068  69.82019171947911 2291.105250555033 -1411.621947026751  20.44152936828524 2641.53347280357 -732.6688817689027  -71.57636858142278 2357.301739533791 -1303.070178363617  -118.1111097955157 2594.317596262713 -552.5590415248413  -208.1376817156912 2215.696777839694 -998.737822020618  -22.71801019201981 2747.472501122856 48.92890078063392  -145.1026726541027 -2128.606935779523 1452.191055185292  -200.4346379880307 -2354.051640215083 718.93422522965  -244.3831374365385 2302.614344905894 -269.8977305028327  -322.7837285760987 1801.227597632774 -684.9020268600137  -343.8250537893892 1797.262070879517 61.28947722472006  -403.2743713604888 1185.839760309431 -428.1030860469364  -408.7984739435325 1125.599065328711 399.4441999370552  -358.2708829079747 1123.91581519426 -1219.055018280745  -330.6304917405856 1663.076679351053 859.6885379498859  -426.6110967826635 491.5922028749291 -777.4219421942995  -377.6526556911681 925.2787549379037 1173.704303213487  -363.1527713566217 315.5637794063415 -1564.442814340576  -407.7863313365438 -357.0231570888647 -1116.613414762009  -280.9724789934749 1394.655023346598 1593.289225217195  -62.74752868972831 -1139.894843266697 2387.169498512571  -273.6997183738878 -1820.511740046918 1184.516974743027  -326.3367848352253 -483.605535697545 -1785.818203268783  -352.5773465600255 -1135.107389993931 -1265.197994964432  -436.3986559551703 311.9842850497934 670.923416968909  -151.8716986198575 1834.914272340816 -1767.187154217055  -310.748148938967 595.5374172826978 1848.210325861489  97.70397583259901 1854.075484382229 1875.735745438456  -420.4944654557186 -929.9317956250085 -449.7340346509471  -264.4017635855243 193.1494262487557 -2149.612784152222  -206.0039626711784 1061.133763587325 2132.136871881793  -254.0885158808932 -1221.017676299567 -1857.887605925252  -266.0704588883742 -1818.070787868948 -1245.732023200039  -224.2468684673884 2047.260883636707 1194.842810270154  -114.5151125368461 -2656.705374390651 170.7519112780463  -216.9448871479946 178.6649581959329 2324.980172601744  -320.5419042433046 -258.1373105500073 1863.484529321575  -153.5826669334875 -1823.167592698453 -1773.436624229134  -154.1057889136002 -2324.31253608418 -1098.385822457612  -132.3326145491804 -1154.45636534608 -2281.294744328772  230.3576306916545 2370.345517320043 -74.86476150179887  -309.7583492885904 -1952.766032671866 470.41383732566  -372.934385890092 -1318.860405845866 823.0886402037114  81.36524474851947 2387.165100220981 1230.916559772616  -29.37042703092593 2152.932367480237 1643.382387146542  -10.17349566960419 1622.222255257889 2142.480467417826  -123.0528851632549 685.3880045392582 2467.354318403512  -205.2241570927629 -1488.741195580003 1882.274116277785  107.1222190331337 1812.616483632884 -1895.779175777144  -254.6433600874782 -2198.15059255447 -579.1516023317175  -33.64051227862079 1390.501912139855 -2281.333550209864  -74.53997603097409 596.1931995073812 -2553.685088710173  -50.55795530355962 2569.94572315166 900.5260007068791  -95.97341822131607 -421.9879421755023 2561.550142257293  -32.83161284765906 -2254.491633206967 -1508.973941672861  -207.3664768068871 -678.1740738066025 2268.526691107033  -319.6788668773534 -1091.883449342268 1563.667359910592  -397.9504501593509 -524.8530911787335 1174.657626268882  -435.4081937463536 -681.3901861755224 372.3218320484103  -452.2240378461511 -88.63099357196485 -230.4973896273124  -174.4699069954536 1181.460359199952 -2168.986629789166  -264.6116528393186 1306.906861941521 -1750.302593984495  -38.63929069047848 -2589.483321501396 -868.0025254968689  -15.4545403549659 2032.722903932283 -1786.059914361125  181.1747920863495 2418.83823942093 692.7581686937747  391.4677544736884 -714.4862285025115 1155.925345375163  22.6978334744359 -779.0230081296462 -2541.546862243326  71.82181571990337 -2683.579486571353 -408.5657479889092  -138.3385431084412 1757.352987213152 1875.120782867395  434.1706676242441 692.3500116859136 -401.7461403809517  290.2516353779038 1994.950131057648 682.474491463903  342.3879599793253 1808.146606458153 -30.32656354938641  -346.8181242489374 -1635.284426230113 -670.86993149939  -150.5396449190863 2587.18400881111 206.5085826770374  -252.5378497588674 2231.248703204944 485.2948078179947  -24.63839992133252 -1681.929713448871 -2095.119456196252  -105.8513735795772 -306.9860696788571 -2563.490379568683  -223.1469998987924 -492.7110091207824 -2261.920903853992  104.9695717720063 2673.2902063523 -135.5224749686655  12.30150956786694 -2733.341515373676 294.7853772673102  250.8500071844047 -1738.364916242163 1443.554541968017  434.9382096929161 701.2084044490834 356.5687702625733  198.687934089335 -737.0009925760828 2277.95507457515  -384.1910260290478 -1466.512366641603 65.5154829359719  -81.31698329539293 -1815.113306789957 1936.86321912117  221.3295399757576 1331.5627046896 -1928.93983697255  -389.1509785955428 219.3206242820704 1351.885268809768  101.989990626958 -2048.653419373146 -1668.18993997701  111.272656309316 1321.078901189159 2235.114958917907  64.72904786510153 2661.272581939731 557.5112456452113  -282.5330608466977 1724.815036521627 -1245.362529977537  379.8728703948901 -1326.296284164524 -693.4615749924606  -6.951336415507429 715.5175865232746 2561.967906284541  344.0766240706409 -1290.773146003473 1204.912480813431  -440.9836547745688 655.8124195491723 -60.35360848146446  -234.8382196845489 -2355.299497314605 25.59157797272172  -143.4235603420792 -2570.659543844331 -439.6246316721295  407.4879074124176 1215.574274077047 -18.46249030464501  -101.3960562768982 1355.360764022108 2232.053721153975  126.1726246775755 1230.834620650883 -2255.927146441035  -153.1430543439745 202.1032494055456 -2490.610195359709  -166.1125228343333 2407.220516168232 842.883162415346  386.3387319127656 -1233.556540449236 729.7058774109485  -30.94941172519204 -2731.068563352348 -266.3717807414487  -291.3087574570312 715.2466838816243 -1915.595999992965  -199.0958281604899 607.8110870175975 -2311.952092694344  -127.0451089717889 2213.362848048835 1390.749856739949  -319.4343342642972 -1950.441848069345 -148.4228303701444  -0.0005449305375485947 8.838972439779392e-05 -0.0008736863625350498  -144.8348725303628 -1076.670353961983 73.50323354139839  218.9940782081129 419.8907525364124 -12.13166700856713  -87.24849008498245 1131.671563755402 584.5876627006697  163.2398140686955 -802.2422989927253 531.8334078953425  -106.3474461096836 117.4231399966885 -1181.528279584189  -225.2351073098433 213.7091951760082 0.9768412626101597  43.03572193410471 1280.062235564994 -507.6219656302405  152.1316986177196 -630.808656913084 -794.9431522341378  -118.334221772114 -119.8558289473051 1145.967528275278  113.4794095250782 952.4589194609686 924.0251013691285  -41.9054139859025 -1086.921620032482 -1003.742850170303  37.48537823557547 -1569.815769676612 4.908053943860575  9
[...]
<PointData  Vectors="Tidal Force"> 
<DataArray  type="Float64"  Name="Tidal Force"  NumberOfComponents="3" format="ascii">0.0000000000000000e+00 0.0000000000000000e+00 0.0000000000000000e+00  0.0000000000000000e+00 0.0000000000000000e+00 0.0000000000000000e+00  6.2422701524614956e-14 8.5917477839988818e-14 0.0000000000000000e+00  1.1873436024089673e-13 1.6342382683998102e-13 0.0000000000000000e+00  1.6340794779427330e-13 2.2491174509575391e-13 0.0000000000000000e+00  1.9209150105641531e-13 2.6439126923650960e-13 0.0000000000000000e+00  2.0197401069867668e-13 2.7799337684246847e-13 0.0000000000000000e+00  1.9209150105641531e-13 2.6439126923650960e-13 0.0000000000000000e+00  1.6341498411299332e-13 2.2492142975763070e-13 0.0000000000000000e+00  1.1872732392217668e-13 1.6341414217810420e-13 0.0000000000000000e+00  6.2422701524614956e-14 8.5917477839988818e-14 0.0000000000000000e+00  -4.2855402796124654e-13 -5.8985401626808986e-13 0.0000000000000000e+00  4.7288283589734233e-13 6.5086738609189983e-13 0.0000000000000000e+00  -2.5973163291192154e-13 -3.5748992385814212e-13 0.0000000000000000e+00  -3.5472193563212695e-13 -4.8823285919487765e-13 0.0000000000000000e+00  6.3199862927240639e-13 8.6987148744280858e-13 0.0000000000000000e+00  6.3126685212552479e-13 8.6886428260762184e-13 0.0000000000000000e+00  5.4267959944053332e-13 7.4693438957877005e-13 0.0000000000000000e+00  -4.2392413024347658e-13 -5.8348150875315871e-13 0.0000000000000000e+00  -3.1687357723716508e-13 -4.3613906295959603e-13 0.0000000000000000e+00  -7.9578653827756048e-13 -1.0953062042799094e-12 0.0000000000000000e+00  -7.3165049314462183e-13 -1.0070305112729211e-12 0.0000000000000000e+00  -1.1516131759487297e-12 -1.5850595553894436e-12 0.0000000000000000e+00  -1.0349615660489578e-12 -1.4245023884649944e-12 0.0000000000000000e+00  -1.4009697569079890e-12 -1.9282694453102514e-12 0.0000000000000000e+00  -1.2119390544947803e-12 -1.6680910039901480e-12 0.0000000000000000e+00  -1.5244043780538559e-12 -2.0981626262839317e-12 0.0000000000000000e+00  -1.2868582580661421e-12 -1.7712084413233249e-12 0.0000000000000000e+00  -1.5131040501895116e-12 -2.0826090593097987e-12 0.0000000000000000e+00  -1.2018313826534784e-12 -1.6541789872041316e-12 0.0000000000000000e+00  -1.3575978883178152e-12 -1.8685731895016860e-12 0.0000000000000000e+00  -9.4101967481803458e-13 -1.2952024677479012e-12 0.0000000000000000e+00  5.9194790311807985e-13 8.1474639204009012e-13 0.0000000000000000e+00  1.0190313404668431e-12 1.4025763139759297e-12 0.0000000000000000e+00  1.0117452324322676e-12 1.3925478466025084e-12 0.0000000000000000e+00  -9.8459207849172882e-13 -1.3551747364199558e-12 0.0000000000000000e+00  -8.0105322283949183e-13 -1.1025551736946908e-12 0.0000000000000000e+00  9.3641792237514465e-13 1.2888686988804773e-12 0.0000000000000000e+00  1.3221137330127787e-12 1.8197334396570071e-12 0.0000000000000000e+00  -2.4834686922293694e-13 -3.4182014094148739e-13 0.0000000000000000e+00  -7.4138172193440292e-13 -1.0204243986485288e-12 0.0000000000000000e+00  -2.8227951625021032e-13 -3.8852442284233236e-13 0.0000000000000000e+00  4.8478828717160810e-13 6.6725383398743731e-13 0.0000000000000000e+00  5.7917698464125213e-13 7.9716873073370672e-13 0.0000000000000000e+00  1.0132228593634705e-12 1.3945816255966353e-12 0.0000000000000000e+00  -1.4588012604677939e-12 -2.0078676812756314e-12 0.0000000000000000e+00  -1.5944685217084075e-12 -2.1945976469221201e-12 0.0000000000000000e+00  -8.7352378749628866e-13 -1.2023023486947431e-12 0.0000000000000000e+00  1.0206461756130866e-12 1.4047989438766544e-12 0.0000000000000000e+00  1.3576119609552552e-12 1.8685925588254392e-12 0.0000000000000000e+00  1.2882268220571853e-12 1.7730921080583613e-12 0.0000000000000000e+00  1.5637585086549009e-12 2.1523289401608471e-12 0.0000000000000000e+00  1.4333895954104590e-12 1.9728915249075853e-12 0.0000000000000000e+00  1.6259208663868753e-12 2.2378880855113944e-12 0.0000000000000000e+00  1.4110281745182508e-12 1.9421136694631298e-12 0.0000000000000000e+00  1.5354021442132396e-12 2.1132997527973630e-12 0.0000000000000000e+00  1.2636208154932919e-12 1.7392248454752087e-12 0.0000000000000000e+00  1.6715689840829740e-12 2.3007173294371038e-12 0.0000000000000000e+00  -1.3674029984541563e-12 -1.8820687658269996e-12 0.0000000000000000e+00  -1.5300017695956279e-12 -2.1058667748069219e-12 0.0000000000000000e+00  1.3007057333071321e-12 1.7902678558968579e-12 0.0000000000000000e+00  9.5895173307599318e-13 1.3198838285409138e-12 0.0000000000000000e+00  9.4716589921996782e-13 1.3036620198972818e-12 0.0000000000000000e+00  5.4648976602742154e-13 7.5217863398505467e-13 0.0000000000000000e+00  5.0715674438253646e-13 6.9804137409376932e-13 0.0000000000000000e+00  5.2860344384114290e-13 7.2756022349424110e-13 0.0000000000000000e+00  8.7089924061372292e-13 1.1986899698146984e-12 0.0000000000000000e+00  1.1117383577624036e-13 1.5301765765336454e-13 0.0000000000000000e+00  3.9839988408662136e-13 5.4835039779508395e-13 0.0000000000000000e+00  3.1652879761988430e-14 4.3566451452763308e-14 0.0000000000000000e+00  -3.9987399285846457e-13 -5.5037933445827265e-13 0.0000000000000000e+00  7.2868820296349548e-13 1.0029532686227902e-12 0.0000000000000000e+00  -7.2560981352348886e-13 -9.9871622905169225e-13 0.0000000000000000e+00  -1.2360138189953122e-12 -1.7012270746016026e-12 0.0000000000000000e+00  -4.4113144767327376e-13 -6.0716534937286146e-13 0.0000000000000000e+00  -8.5156695493048106e-13 -1.1720813613082036e-12 0.0000000000000000e+00  -3.1100528742467242e-15 -4.2806205495434890e-15 0.0000000000000000e+00  1.0555744617392421e-12 1.4528736054330658e-12 0.0000000000000000e+00  2.2632670978864930e-13 3.1151199159805676e-13 0.0000000000000000e+00  1.1782948965350275e-12 1.6217837932262512e-12 0.0000000000000000e+00  -7.5618965468067484e-13 -1.0408057695682443e-12 0.0000000000000000e+00  6.4382316288139196e-16 8.8614656172676292e-16 0.0000000000000000e+00  5.5788508419448616e-13 7.6786294389452457e-13 0.0000000000000000e+00  -8.6035531701178001e-13 -1.1841775039923207e-12 0.0000000000000000e+00  -1.2311235774849018e-12 -1.6944962345972297e-12 0.0000000000000000e+00  1.1533617011506535e-12 1.5874661938658274e-12 0.0000000000000000e+00  -1.6770432400471457e-12 -2.3082519963772502e-12 0.0000000000000000e+00  1.2876463257627839e-14 1.7722931234535259e-14 0.0000000000000000e+00  -3.0054931780672984e-13 -4.1367064740543125e-13 0.0000000000000000e+00  -1.1842229950566403e-12 -1.6299431208574512e-12 0.0000000000000000e+00  -1.4911964718547440e-12 -2.0524558645563964e-12 0.0000000000000000e+00  -7.6547055907237487e-13 -1.0535798385837370e-12 0.0000000000000000e+00  1.5532849482401582e-12 2.1379133209572372e-12 0.0000000000000000e+00  -1.3329953999132818e-12 -1.8347107692494711e-12 0.0000000000000000e+00  -9.7309121554386364e-13 -1.3393451565823339e-12 0.0000000000000000e+00  1.4973180691411573e-12 2.0608815203892081e-12 0.0000000000000000e+00  1.3047058804994609e-12 1.7957735861738160e-12 0.0000000000000000e+00  9.8840576323797698e-13 1.3604238231571787e-12 0.0000000000000000e+00  3.6478738956110872e-13 5.0208676800963325e-13 0.0000000000000000e+00  -1.0024924733154474e-12 -1.3798125162345227e-12 0.0000000000000000e+00  1.1571050227097015e-12 1.5926184339842823e-12 0.0000000000000000e+00  -1.4586816430495537e-12 -2.0077030420237257e-12 0.0000000000000000e+00  8.3613982613684768e-13 1.1508477401433300e-12 0.0000000000000000e+00  3.3176946396743734e-13 4.5664149215277161e-13 0.0000000000000000e+00  1.5505267113019123e-12 2.1341169335015338e-12 0.0000000000000000e+00  -3.0097149692993070e-13 -4.1425172711803894e-13 0.0000000000000000e+00  -1.3945280071198151e-12 -1.9194031373620453e-12 0.0000000000000000e+00  -5.0731154339437683e-13 -6.9825443665505885e-13 0.0000000000000000e+00  -8.1048188992431236e-13 -1.1155326206095964e-12 0.0000000000000000e+00  -4.9822413776747725e-13 -6.8574669584117791e-13 0.0000000000000000e+00  -6.1069265618820037e-13 -8.4054633127987260e-13 0.0000000000000000e+00  -2.5535504266807209e-13 -3.5146606417077545e-13 0.0000000000000000e+00  6.4555761544587568e-13 8.8853383087939284e-13 0.0000000000000000e+00  6.8225905388947505e-13 9.3904902722875674e-13 0.0000000000000000e+00  -1.6021556999100240e-12 -2.2051781400225190e-12 0.0000000000000000e+00  1.2373190561178751e-12 1.7030235793797485e-12 0.0000000000000000e+00  1.5610882257006550e-12 2.1486536109786034e-12 0.0000000000000000e+00  -2.6323571963448912e-13 -3.6231288547278605e-13 0.0000000000000000e+00  -4.6672957517668912e-13 -6.4239814928064237e-13 0.0000000000000000e+00  -1.6106239094895621e-12 -2.2168336305912418e-12 0.0000000000000000e+00  1.0141235081596324e-12 1.3958212623168650e-12 0.0000000000000000e+00  6.1684943506821362e-13 8.4902041042206837e-13 0.0000000000000000e+00  1.3501429086339592e-12 1.8583122902432210e-12 0.0000000000000000e+00  1.2589873996161619e-12 1.7328474956293392e-12 0.0000000000000000e+00  -1.1551524442648975e-12 -1.5899309403134717e-12 0.0000000000000000e+00  1.5166186913901588e-12 2.0874465479172573e-12 0.0000000000000000e+00  1.2533935262337498e-12 1.7251481894372866e-12 0.0000000000000000e+00  -1.0404323038537694e-12 -1.4320322130742025e-12 0.0000000000000000e+00  -2.3497082733618800e-13 -3.2340959871369972e-13 0.0000000000000000e+00  -4.0081334140758657e-13 -5.5167223681882473e-13 0.0000000000000000e+00  1.6829467114532386e-12 2.3163774276918816e-12 0.0000000000000000e+00  -1.6675512460938454e-12 -2.2951873875054536e-12 0.0000000000000000e+00  -9.5246424721613939e-13 -1.3109545702905086e-12 0.0000000000000000e+00  6.2261218009990609e-13 8.5695214849916371e-13 0.0000000000000000e+00  -3.6275037529166423e-13 -4.9928305839630086e-13 0.0000000000000000e+00  -1.0684720339530301e-12 -1.4706255906532315e-12 0.0000000000000000e+00  -1.1471556680396003e-12 -1.5789243220904942e-12 0.0000000000000000e+00  9.1345137807301505e-13 1.2572579625146175e-12 0.0000000000000000e+00  -3.8815852218963927e-14 -5.3425437243340858e-14 0.0000000000000000e+00  -1.2085862486246931e-12 -1.6634762626058548e-12 0.0000000000000000e+00  8.5809314054329524e-13 1.1810638851989310e-12 0.0000000000000000e+00  1.6576968817264642e-12 2.2816240185470021e-12 0.0000000000000000e+00  9.3007819920841075e-13 1.2801428185294845e-12 0.0000000000000000e+00  -6.4286974169482990e-13 -8.8483429004245707e-13 0.0000000000000000e+00  4.3486560585310015e-13 5.9854115797157516e-13 0.0000000000000000e+00  -6.3704015163529726e-13 -8.7681054767753230e-13 0.0000000000000000e+00  2.0530570761260389e-13 2.8257906424113104e-13 0.0000000000000000e+00  -1.5460656852334226e-12 -2.1279768578716456e-12 0.0000000000000000e+00  -1.6372282305699399e-12 -2.2534513371474044e-12 0.0000000000000000e+00  9.2523721192904041e-13 1.2734797711582493e-12 0.0000000000000000e+00  7.8449676489129624e-13 1.0797671642985915e-12 0.0000000000000000e+00  8.0947569634735009e-13 1.1141477139612145e-12 0.0000000000000000e+00  5.5600990525560210e-14 7.6528198150435862e-14 0.0000000000000000e+00  1.3995378660484658e-12 1.9262986166183238e-12 0.0000000000000000e+00  -5.8322990422398091e-13 -8.0274709597474086e-13 0.0000000000000000e+00  -1.6853953503678040e-12 -2.3197476900250063e-12 0.0000000000000000e+00  3.0824001416770644e-13 4.2425598283676835e-13 0.0000000000000000e+00  2.8348976307005290e-13 3.9019018468514116e-13 0.0000000000000000e+00  1.2982570943925668e-12 1.7868975935637331e-12 0.0000000000000000e+00  -1.3358802905884884e-12 -1.8386814806189572e-12 0.0000000000000000e+00  0.0000000000000000e+00 0.0000000000000000e+00 0.0000000000000000e+00  -7.2341448208284406e-13 -9.9569461454613223e-13 0.0000000000000000e+00  3.5439474681164625e-13 4.8778252241760656e-13 0.0000000000000000e+00  6.5387454417293367e-13 8.9998110121776496e-13 0.0000000000000000e+00  -4.1844635611994465e-13 -5.7594199948207357e-13 0.0000000000000000e+00  2.4574343129653130e-14 3.3823681604707323e-14 0.0000000000000000e+00  3.0643168025666246e-14 4.2176702473443200e-14 0.0000000000000000e+00  8.0263639455149534e-13 1.1047342226169695e-12 0.0000000000000000e+00  -3.1845323078980845e-13 -4.3831326955093656e-13 0.0000000000000000e+00  -1.2598880484123240e-13 -1.7340871323495690e-13 0.0000000000000000e+00  6.3344107461000957e-13 8.7185684312755151e-13 0.0000000000000000e+00  -6.8391962510739854e-13 -9.4133460743168044e-13 0.0000000000000000e+00  -9.4418250008268126e-13 -1.2995557232615205e-12 0.0000000000000000e+00  2.9534244195391859e-13 4.0650399761660278e-13 0.0000000000000000e+00  -7.6411958587813201e-13 -1.0517203835033924e-12 0.0000000000000000e+00  -5.6079460198521241e-14 -7.7186755158057933e-14 0.0000000000000000e+00  6.6390129834895534e-13 9.1378174439219807e-13 0.0000000000000000e+00  -4.4999720926049295e-13 -6.1936802333762323e-13 0.0000000000000000e+00  1.4604934951199575e-13 2.0101968424570005e-13 0.0000000000000000e+00  4.4030116206431191e-13 6.0602255927139951e-13 0.0000000000000000e+00  1.0492628838473885e-12 1.4441864637295805e-12 0.0000000000000000e+00  6.9494905470102256e-13 9.5651531492355717e-13 0.0000000000000000e+00  9.4083321237195399e-13 1.2949458242081661e-12 0.0000000000000000e+00  2.8709235825470068e-13 3.9514873156606030e-13 0.0000000000000000e+00  -1.9839252447018897e-13 -2.7306388394717977e-13 0.0000000000000000e+00  6.5165810377612896e-13 8.9693043272657449e-13 0.0000000000000000e+00  -4.7290042669414241e-13 -6.5089159774659177e-13 0.0000000000000000e+00  1.7579538690086007e-13 2.4196159232985188e-13 0.0000000000000000e+00  -7.5539455066531320e-13 -1.0397114027761664e-12 0.0000000000000000e+00  2.0085171786283426e-13 2.7644867327311965e-13 0.0000000000000000e+00  -3.0492238989121925e-13 -4.1968966476185936e-13 0.0000000000000000e+00  -1.0955196431127686e-12 -1.5078534309076325e-12 0.0000000000000000e+00  -1.1501531398143266e-12 -1.5830499880500089e-12 0.0000000000000000e+00  -9.3492974096586131e-13 -1.2868203928935348e-12 0.0000000000000000e+00  7.3771931804063499e-13 1.0153835321416568e-12 0.0000000000000000e+00  -9.1664938493126188e-13 -1.2616596413376207e-12 0.0000000000000000e+00  1.0993720276119768e-12 1.5131557832851775e-12 0.0000000000000000e+00  -4.9180701509482327e-13 -6.7691428420954059e-13 0.0000000000000000e+00  6.6163560372111044e-13 9.1066328326787010e-13 0.0000000000000000e+00  5.1967083722608349e-13 7.1526554524164968e-13 0.0000000000000000e+00  3.1497728934212091e-13 4.3352904658379974e-13 0.0000000000000000e+00  </DataArray> 
</PointData> 
</Piece>
</UnstructuredGrid>
</VTKFile>