<?xml version="1.0"?>
<VTKFile type="UnstructuredGrid"  version="0.1"  >
<UnstructuredGrid>
<Piece  NumberOfPoints="201" NumberOfCells="657">
<Points>
<DataArray  type="Float64"  NumberOfComponents="3"  format="ascii">-0.154737684807146 -0.2030906118793849 279.4372130550817  0.06672153803306896 0.1846592566350123 -279.4617492521559  551.3396283348787 -1.037386779175936 -270.251167328841  1046.678429319224 -1.99615049890477 -234.7447124890238  1437.177887687764 -2.507038510890014 -175.2978394218111  1686.394371908501 -2.679317002090499 -96.73921952302337  1772.003466100856 -2.737290501653721 -8.102285263830595  1686.38053371857 -2.738732157812555 80.57254465243413  1437.108728263889 -2.605501804429813 159.8360245045799  1046.550235652585 -2.207353910616431 222.0207810326445  551.1816145425834 -1.337218649465564 262.8033039212972  698.6856633614194 -516.6226464020473 -242.6938427906835  692.4360479609616 398.6916777145424 240.8380125453112  1687.751555240862 -459.5366096039406 -46.32457859374441  1219.236822237631 -501.9834244109385 188.2306900587155  1535.14018307085 459.8691447902837 108.1890871457666  1528.905642019809 459.8698694301454 -134.6262228157236  777.9397335583971 459.6451729670921 -252.3343637308187  269.5783876069099 -462.3498273797852 270.956382367739  1211.484742982643 -462.6736882027994 -195.0724794710371  844.4709622652391 -905.1222018945324 -194.1353119968682  1251.490810807592 -886.5409513788525 -135.999830087551  858.8740127574493 -1265.413174698436 -124.7068077605105  1207.754959932565 -1187.134375294266 -60.54800904006146  758.7444610289425 -1504.486763477873 -45.51882156746169  1079.003739294265 -1350.638409748283 21.42444114504815  567.9356202071289 -1606.667043156074 37.63728409419394  823.2930194368264 -1397.320220971518 106.0540306689204  298.1815156820554 -1564.723575267352 116.434824913825  528.5552398076925 -1278.656681529782 179.586644364043  -18.18083129845627 -1372.274087997713 183.8491127679008  1260.975565075491 -1098.626918343462 85.91674026082889  1209.697350282498 458.0490777775672 181.2979829081437  1223.016372392639 887.9037054600569 127.6689259643741  1479.413943187307 849.6293466480238 50.22934684621286  199.1739920039577 -1021.913583362848 235.29042882847  724.011622108467 -896.890601603117 218.0670305074025  841.2174193431828 850.3132547349671 190.744250515831  808.3491996994649 1242.921863096876 127.8795971485009  1690.991200965097 -448.4271809700502 38.82420380731308  1491.507263981381 -923.3617165123592 6.387792535060139  1540.339565313608 -465.4645241185297 -122.4033275161001  267.8061090538421 461.1744101764126 -274.4499219696831  1197.844637797302 446.7378184546256 -207.7994685803438  1213.752462485539 883.2724634474679 -161.3287810435347  369.7820126878299 -1518.433981168557 -102.2733491149743  -254.6750850528193 -1582.165382648059 113.8554211247061  361.8394909847759 -928.2500954450294 -220.7495956583797  1469.359516417938 859.9117830296533 -82.25718508630906  1097.922859908703 1243.708655022479 -97.92817433973127  780.233674165827 1212.329425121382 -172.6412940248073  614.3023653376822 1508.672299870056 -104.5868523363656  270.5059489007347 1418.762463025083 -167.9139905014765  77.2380823699326 1634.226844101048 -95.0446381688506  -281.9371286591577 1460.580819321286 -153.6656628166311  -463.0694082297946 1605.785838789425 -72.55050891415107  -814.7253539459306 1373.126294613495 -117.1669644818155  -91.09490638306058 1699.328193742657 -9.87578287268647  -564.8950954623227 -1317.768802340674 172.8447496138095  -779.6773563797425 -1455.174089150481 95.24219304348031  -955.3211461411568 1426.053272449478 -37.8338116158725  -1261.387440835339 1116.86965142455 -78.58583564764469  -1342.803014350218 1114.021980641988 2.74676315134776  -1574.806940121305 736.2125390357828 -45.71894732260859  -1596.250625700471 698.9447366541639 44.33471412614983  -1400.885128102563 698.5389333369258 -131.3162312537947  -1292.287432971197 1031.598466188425 89.3838676903199  -1665.848731632788 307.0054364315948 -79.08249776271474  -1476.32435538597 575.5029042000733 128.3453924001101  -1420.585004171507 198.2501882667065 -162.5834714878515  -1592.31037093507 -218.4670145382368 -110.3890932355925  -1100.436865368506 866.4954846227594 167.7095884470735  -244.8954957791005 -708.0213517313248 263.3943581998915  -1067.104837884679 -1125.460449327846 144.2719461475799  -1276.603260447775 -297.4811066358511 -180.6646150749799  -1376.19121464783 -700.6319619191916 -122.1074657175683  -1703.623081511402 195.8458450138215 78.79857911399507  -596.2152198507578 1139.095311553243 -198.5438146618937  -1217.284320069362 371.6867529018449 200.5155591640511  380.3347303466193 1149.141395130926 184.92009129371  -1639.542602610815 -572.7661796478234 -35.83734432643242  -1036.570390574475 122.129042072797 -223.8797554506704  -808.7091736769331 660.4592083125365 223.7640664317201  -993.0926070599496 -755.401965327066 -184.2691972118278  -1037.383688627574 -1123.972629584121 -117.3371665702033  -877.9087224810512 1269.450323042403 120.4311315737507  -444.09081620871 -1642.300824424315 35.69897220721729  -851.4123999507304 112.6606133313894 250.534673138188  -1254.694955932489 -157.8031470605743 208.2329519915847  -598.8438691741085 -1129.260098960604 -173.5666620443361  -599.3112019367355 -1437.769020515188 -100.9853306648883  -517.5351740161981 -715.9615363012883 -229.6443717502178  896.055644228314 1464.274915233442 -25.67818962372987  -1206.411966370363 -1206.025731050726 67.76215817729687  -1454.257470535786 -813.8579306140736 103.7101885477702  315.3367033121537 1477.506452271506 115.8009880969473  -117.2292277479012 1334.643597524348 162.0715067514722  -41.84541115154534 1007.106052670497 215.8278103463535  -484.0669611621732 427.0478162634524 258.4956615244879  -801.6818602284044 -922.0646282354135 216.2785179737539  417.3267592721623 1123.678100331511 -217.8034924041008  -991.1579268131553 -1358.218728005211 -45.08495680646543  -133.5304375399982 864.1857953756996 -252.0740383412435  -293.4750894267458 371.5943673966256 -272.5880989280236  -199.7620943979185 1590.822230490188 82.68048797249271  -376.4864881749843 -261.878166719138 276.3739346076133  -125.9733614702036 -1396.685281577892 -146.2720630326324  -812.4124526266676 -419.6989266108855 251.2292265194796  -1248.911996287998 -674.5840677302335 181.7900726956981  -1553.950685170909 -322.469446721182 137.7171358236089  -1697.9494394363 -418.9535340271825 52.01272833339159  -1764.212861940214 -52.1046223650944 -16.42694651661388  -685.3200306244607 735.1844199612412 -235.4826058198873  -1036.926261809912 812.4877847932573 -190.6847473348756  -148.4273050537541 -1602.214337234998 -77.36046446076729  -62.65634484762144 1260.664348740054 -204.8475980453402  704.4314434107779 1495.110303549601 57.26995023203976  1530.119708230342 -445.0413025318904 121.3343846699738  90.14143554564207 -484.4693663711968 -262.2362394272118  282.4695042518771 -1660.462303422231 -30.08345473543677  -543.4890384445994 1091.180999713532 190.9329726372233  1693.366770513152 425.6990905768758 -55.27447920536257  1130.414447583355 1232.219464959015 56.79158351814441  1333.541120669183 1116.045577370114 -19.56154188094776  -1351.589196306979 -1009.578463059355 -56.54669376258989  -589.3738778555877 1601.32156672781 10.38564776728886  -987.1935099444572 1382.122717580632 44.38611204497669  -94.52177500853301 -1043.814985438303 -209.6406288439783  -415.2881591916215 -189.8073355969238 -265.1097627806735  -874.4706437544248 -304.0719347776196 -230.8281298798244  406.775945586943 1652.577599522992 -31.82441932164012  50.31579777932494 -1690.704186222905 47.31766735939265  982.2626591711042 -1078.954255910405 161.3089499452011  1696.270084416747 431.1759568880017 26.82404281020447  780.0689778589135 -459.5617414033167 242.7266239256644  -1497.104419940405 -904.7116547320103 22.264983995809  -316.3913962169662 -1125.589951621918 221.6336226529539  865.0938199749077 824.4727531827857 -220.4771445467047  -1521.198004438304 138.4939800708952 151.9988360674112  401.0424682287757 -1270.749274569924 -166.9379615522813  434.6106312604293 819.4768792314285 224.271722312155  249.9246192336039 1645.746182469978 43.59061103899936  -1105.585416954218 1070.333325589803 -139.3164380370786  1484.056101095825 -823.1747788049652 -74.43793993789008  -28.33970322081252 444.859917556773 264.3631895322589  1345.594293576883 -801.8203814301553 131.0979902036995  -1721.118001575864 408.4417128222969 -2.356778626269152  -913.4364487448086 -1455.192867165503 20.3923219599918  -556.9130481483974 -1589.06445683778 -30.11294274764006  1588.36959826318 749.3567313888384 -16.10973712084839  -399.2571290681275 842.5329900667356 229.0490230631815  493.3566120578411 763.5234864358056 -252.1424325169555  -601.4901232531431 127.1596784744038 -260.9390595442501  -650.5521296320742 1490.946335137989 79.88568747398982  1509.273353514104 -765.9061738647406 78.88036914567165  -118.3479853237923 -1688.977978406982 -12.57433913489872  -1141.575852606681 446.0914082221648 -203.1954016211882  -781.660019324852 379.3905135227689 -245.1836400309432  -498.7000451064008 1372.020276383097 137.8823407009625  -1243.878915517815 -1204.322418872921 0.7810147545442288  0.004442534463127206 0.0124337645849369 -0.006329878686582122  -567.0479813497886 -667.8450264181668 19.82892349637083  858.9687049766826 259.1368052538042 -10.00215054579618  -343.9929831712624 704.1072539240857 55.08060638878067  641.8570938363276 -500.0613439033345 58.61834609553308  -418.1999632356429 74.090378815306 -122.7419992371626  -884.3209746219189 134.639963661901 4.016644473584834  167.377552460817 795.2057262001161 -65.05527985056113  598.3490264321624 -393.4203543547064 -82.885474143034  -464.9658973888429 -73.60236189548772 125.0553654477017  444.3651848282639 591.0052292006343 87.22491283820831  -163.1220141008182 -675.2896142344642 -96.28189838545927  148.8605360891814 -975.3283688413934 11.62059477965754  354.5821327255742 258.626104000527 -144.628
[...]
<PointData  Vectors="Coriolis"> 
<DataArray  type="Float64"  Name="Coriolis"  NumberOfComponents="3" format="ascii">2.9456494508587728e-11 -1.3157988015966738e-11 -2.2734268365830846e-13  -2.9549753360857985e-11 1.4023921618362879e-11 -4.7897182470844574e-14  -2.5849687421181020e-11 -1.0150426944804659e-10 3.8047947010673620e-11  -1.7431945094117182e-11 -1.8658792857528733e-10 6.5209320262312060e-11  -7.8680154771177908e-12 -2.2726908264123029e-10 7.7324900556798285e-11  -2.9746396724043946e-12 -2.3685378603476983e-10 7.9764205316768436e-11  -1.2777509980401626e-12 -2.3751042370791046e-10 7.9717178074949190e-11  8.8493827097774176e-13 -2.3888397130970873e-10 7.9836910754109551e-11  6.5841914440316779e-12 -2.3398346705370751e-10 7.7299968458118371e-11  1.6374046958292889e-11 -2.0231146604472669e-10 6.5156870041258076e-11  2.6080892785734867e-11 -1.2569637585961379e-10 3.7980307425123049e-11  -1.0410972641587108e-10 -1.2612863578305156e-10 5.8599612199828501e-11  8.7333138223274451e-11 -1.4696922880204022e-10 3.5469346365185654e-11  -5.2197990967824485e-11 -2.3047260310846304e-10 8.5369016999479296e-11  -6.0019758837051196e-11 -2.1099360912255916e-10 8.0077735038861993e-11  5.8198078275896483e-11 -2.2605442037982076e-10 6.6528277485413089e-11  5.0262364643608404e-11 -2.2280500190862986e-10 6.6688422874909346e-11  5.3758974596611403e-11 -1.3935901725949335e-10 3.8201602160657631e-11  -5.4340706813002954e-11 -6.7421460600148913e-11 3.1118022052846443e-11  -7.6030888579118094e-11 -2.0157474178027174e-10 7.9442397893619145e-11  -1.4132882510805771e-10 -1.4013022344481647e-10 6.9140518035089927e-11  -1.1560145726994101e-10 -1.8957480404246224e-10 8.1648047144311042e-11  -1.5926560204603412e-10 -1.2679839786050805e-10 6.7497998965763448e-11  -1.3324756833679659e-10 -1.6655534143984330e-10 7.6716487409945958e-11  -1.6534320080534703e-10 -1.0281229713054411e-10 6.0423481626804158e-11  -1.4475926537144515e-10 -1.4498376770699355e-10 7.1304930911913936e-11  -1.7076912749026479e-10 -7.5590942430242016e-11 5.2163346015470827e-11  -1.5759622680439547e-10 -1.1802678812590388e-10 6.4298811094127421e-11  -1.7607428910243234e-10 -4.4035234530939853e-11 4.2433117907371687e-11  -1.6046895209165839e-10 -8.8395204236025994e-11 5.4830221306783025e-11  -1.7087087958581600e-10 -1.2366670477220320e-12 2.7286243940604077e-11  -1.2307027934524832e-10 -1.7914662197069723e-10 7.9331384478327073e-11  7.4269363435255401e-11 -2.1019154380826004e-10 5.8690066797199444e-11  1.1390475028073173e-10 -1.8750956679233576e-10 4.4863048626063966e-11  9.3026830948582156e-11 -2.0099501998375683e-10 5.2661241827469610e-11  -1.3951739612805903e-10 -4.3862073035466783e-11 3.6625980234593585e-11  -1.1887396383188936e-10 -1.3612368321812820e-10 6.4267775024731786e-11  1.3452239087360759e-10 -1.5143653040976126e-10 2.9543680450802707e-11  1.5767483372149508e-10 -1.2394153084710807e-10 1.6697518618265680e-11  -4.9721666796631407e-11 -2.3184861114680867e-10 8.5440249229769719e-11  -1.0099195304793022e-10 -2.0277202862653570e-10 8.3768770725345929e-11  -6.0345230575729083e-11 -2.2721764044295452e-10 8.5560572138828857e-11  5.3814252002421595e-11 -4.2545088320454874e-11 5.7805262418867969e-12  5.1554521340945022e-11 -1.9878246328788612e-10 5.8442692797320372e-11  1.0267737425162498e-10 -1.8128109919051152e-10 4.4543504044893724e-11  -1.8180801571680927e-10 -5.1781019204088070e-11 4.5928054534932349e-11  -1.7572612912353087e-10 3.4781265388116195e-11 1.5991349518980937e-11  -1.6170001025494013e-10 -5.9313399210302106e-11 4.5287513449875771e-11  9.2120573418450602e-11 -1.9887044395667714e-10 5.2092477687573359e-11  1.3273645297272164e-10 -1.4838161997887581e-10 2.8801793218776533e-11  1.4427891840478264e-10 -1.1669580324580053e-10 1.6378443069064720e-11  1.6304729929959021e-10 -8.2599132680841073e-11 2.0115694797894252e-12  1.6963048851227009e-10 -3.7884760463605262e-11 -1.3993690446729728e-11  1.7664913898969745e-10 -8.2042333508513522e-12 -2.5034245366044418e-11  1.7367426067392910e-10 4.5904003475540462e-11 -4.2681320546672649e-11  1.7301803619506278e-10 6.4487033059134122e-11 -4.8799540163492812e-11  1.5801782052978868e-10 1.2012467660303447e-10 -6.5067466661154179e-11  1.7738635834201610e-10 1.3444826496644245e-11 -3.2398084417735042e-11  -1.5904523158369243e-10 8.3799393863379034e-11 -3.0427956226744813e-12  -1.5685191337032203e-10 1.0441842727992141e-10 -1.0290786804321205e-11  1.5424629463316238e-10 1.3013914113900645e-10 -6.7827080473440217e-11  1.2601909947765689e-10 1.7721486583533784e-10 -7.9148400730622178e-11  1.2192919526699787e-10 1.8080361404404894e-10 -7.9706675670874976e-11  8.1178378496724212e-11 2.1694453810610558e-10 -8.5397585876515583e-11  7.8619041835802450e-11 2.1828790149154231e-10 -8.5444833925925126e-11  8.2446726111119806e-11 2.1281920851354891e-10 -8.4215933014867608e-11  1.2237607682465826e-10 1.8335172127349788e-10 -8.0630037116446725e-11  3.4935168616465703e-11 2.3472366695603217e-10 -8.4077373702018193e-11  7.4740241071621300e-11 2.1868989197392973e-10 -8.4969412131227256e-11  2.0358302485889527e-11 2.3124628518314109e-10 -8.0620730530093768e-11  -2.9875003892620204e-11 2.3350885200305993e-10 -7.3478213514019995e-11  1.2401075441895271e-10 1.7545548570696400e-10 -7.8243532134323652e-11  -9.4219987677451394e-11 3.7865631590979427e-11 2.1405692108503324e-12  -1.2953914014801699e-10 1.5397247326498755e-10 -3.1176387070448418e-11  -5.1661781730230586e-11 2.1926892028111320e-10 -6.5284495322593508e-11  -9.0441359304246053e-11 2.0690080956866046e-10 -5.5045051399065001e-11  2.5425260163638120e-11 2.3526310947310283e-10 -8.2762386447052826e-11  1.4741821780211923e-10 1.0532949569106525e-10 -5.8447221209944560e-11  6.4619970244501911e-11 2.0417653076088489e-10 -7.8518899957332062e-11  1.7416706569299825e-10 -7.0802591427178254e-11 -3.6865641130006308e-12  -6.2855764541082013e-11 2.1902885983277738e-10 -6.3443689857855371e-11  2.3986726848382675e-12 1.9974101176491971e-10 -6.7248621297791224e-11  1.1952296817987195e-10 1.4174477711903036e-10 -6.6251730271784466e-11  -1.1859896950750816e-10 1.7404215177696006e-10 -3.9616043987214119e-11  -1.4016960215833334e-10 1.5570118604443070e-10 -3.0083330951697562e-11  1.5999041179059934e-10 1.2940385282263157e-10 -6.8484268605842513e-11  -1.7060782464485770e-10 5.7437409352816598e-11 7.6013515282355386e-12  3.9235873986896000e-11 1.5610756006111994e-10 -5.8433804533808314e-11  -1.0296644402657144e-11 2.0992865847955233e-10 -6.8662803831098755e-11  -1.6577592588653921e-10 1.0455685655933738e-10 -8.9336857781931749e-12  -1.7118422346676857e-10 8.7592089705740238e-11 -2.4035005930846840e-12  -1.3527358567908327e-10 1.0878452867162554e-10 -1.5146058338016462e-11  1.4993472160092280e-10 -1.1675068711614815e-10 1.5507350803213938e-11  -1.2783834070215290e-10 1.6013517168496116e-10 -3.3507078212506838e-11  -8.9253879652695249e-11 2.0044436552287383e-10 -5.3070245788900610e-11  1.8136876509822542e-10 -4.8108611912925969e-11 -1.2416876758001385e-11  1.8645691083110676e-10 1.5906469215601683e-11 -3.4648710610179204e-11  1.7117760802034108e-10 1.6882874455519588e-13 -2.6976979857970564e-11  9.7505487424506331e-11 8.7115778213697883e-11 -4.4499854733144046e-11  -1.1890220696102724e-10 1.3096416315235063e-10 -2.5146254081550862e-11  1.4693910448409692e-10 -6.5433099198768127e-11 -1.2021801503263663e-12  -1.4827544503152003e-10 1.3306309352902308e-10 -2.1229537505026106e-11  1.1827361042771920e-10 3.4874573497876303e-11 -3.0276120712679113e-11  3.8391557688849929e-11 7.3491848426413600e-11 -3.0642067560506728e-11  1.8302972290826240e-10 2.7858756531326310e-11 -3.8111241795292739e-11  -1.9875034376181628e-11 6.5439644707771802e-11 -1.8782898888744484e-11  -1.8714391547515297e-10 2.2971232146158248e-11 2.1740868577344423e-11  -4.7473301719637625e-11 1.4514090125429897e-10 -4.1125846028578047e-11  -8.0965390834706839e-11 1.9482390315221728e-10 -5.2492067855503718e-11  -3.4805156766786918e-11 2.2646481696835310e-10 -7.0344591006463221e-11  -4.4575903912239449e-11 2.2550179128597637e-10 -6.8485570569081278e-11  -5.0827220170812703e-12 2.3570095642996541e-10 -7.8111098007772476e-11  9.7496459836414201e-11 1.3656306454747781e-10 -6.1052916189123682e-11  1.0324190015734919e-10 1.7939737080151802e-10 -7.6296998299270284e-11  -1.8277388699614615e-10 2.2490737161491599e-11 2.1214475811092036e-11  1.6234481200944756e-10 1.6142645286458724e-11 -3.0935761159336261e-11  1.6272980022477535e-10 -9.5650124590255762e-11 6.4308493316834786e-12  -5.0428154280670829e-11 -2.3059077393353094e-10 8.5130243918890682e-11  -1.1106310308459074e-10 -5.2730890793759038e-12 1.9231855929098162e-11  -1.7858963880510839e-10 -3.7670189257787242e-11 4.0697740857979183e-11  1.6863775005834925e-10 8.8174743039701046e-11 -5.6041089079936721e-11  4.4917455664359883e-11 -2.2755880685541271e-10 6.9120525260802385e-11  1.3418495177847207e-10 -1.5334858039639547e-10 3.0236884376952268e-11  1.1504595103929678e-10 -1.7400463018185087e-10 4.0162251944562201e-11  -1.1244409396550761e-10 1.8417184444544651e-10 -4.3975322844608022e-11  1.7159507423296321e-10 7.9238276938044375e-11 -5.3514332453255107e-11  1.5326692437263749e-10 1.3468736311300850e-10 -6.9195760062318688e-11  -1.7510152982226178e-10 2.4706094115871617e-11 1.9266192660624698e-11  -6.0009309176019824e-11 9.8941697208101220e-11 -2.3687301226016443e-11  -6.7259476672650934e-11 1.7589251599837881e-10 -4.8309496976516600e-11  1.7137914469876476e-10 -5.1750253368640374e-11 -9.6266598627942408e-12  -1.7789175174447773e-10 -6.6762918002722764e-12 3.0211524690900887e-11  -1.3255527826843237e-10 -1.5671012984436341e-10 7.3311530350489254e-11  4.7040610776255202e-11 -2.2784223373647871e-10 6.8881513278341533e-11  -5.4388300368410864e-11 -1.5843266927442117e-10 6.1595194004167740e-11  -9.5219398061347007e-11 1.9693391662300529e-10 -5.0956806275269024e-11  -1.4867626675011191e-10 4.8755103683787508e-11 7.0590113966651606e-12  1.0485771670512611e-10 -1.4354417875275522e-10 3.1566647738947651e-11  2.3808666073164996e-11 2.3044765046962426e-10 -8.0895980907616811e-11  -1.8069625243289206e-10 -6.1126792142652592e-11 4.8882087607041834e-11  1.4881167699784241e-10 -9.0947801688344160e-11 7.0454071574350184e-12  1.7711458833952787e-10 -3.2769286727634313e-11 -1.6883298590044987e-11  1.2836691879199401e-10 1.7024395149588440e-10 -7.7183837606916268e-11  -9.5205414104256141e-11 -2.0826605039044701e-10 8.4698089778204765e-11  1.0510487061659199e-10 -6.6189663670522717e-12 -1.4313480090300576e-11  -9.5324277802066124e-11 -2.0490574594102236e-10 8.3591785053082256e-11  4.6009189690224630e-11 2.3149035744926194e-10 -8.4736462009144245e-11  -1.5186029589567678e-10 1.1810125138124037e-10 -1.5656679058638549e-11  -1.6883676460808598e-10 7.3584946408214309e-11 1.9167817544657119e-12  7.8534586915137141e-11 -2.1018762654063983e-10 5.8017979703356657e-11  1.5236744591187810e-10 6.7211826525274617e-11 -4.6464134556923112e-11  1.0084697787777283e-10 -8.4850055271220266e-11 1.2547167201398519e-11  -2.5573290596105958e-12 1.3428327340006153e-10 -4.4554581310722719e-11  1.7214963036084839e-10 9.1501496073633645e-11 -5.7707154542431007e-11  -8.6119673904248430e-11 -2.1387231664682562e-10 8.5146134265891872e-11  -1.7869587031933085e-10 1.6599410937027647e-11 2.2545501479768212e-11  5.3162502372442585e-11 2.0588083619549295e-10 -7.7287612395053011e-11  4.1649167033705558e-11 1.6053411977853215e-10 -6.0295304134695317e-11  1.7843926186325503e-10 7.4732067490032724e-11 -5.3082055993923044e-11  -1.2659597230464042e-10 1.6283438469498611e-10 -3.4606131655071100e-11  1.4805888506993995e-13 -4.6318943406366643e-14 -7.7775213969749653e-15  -1.0969064847006346e-10 1.1082085721753879e-10 -1.9851133934292465e-11  4.2805253391921882e-11 -1.6893548568123112e-10 4.9826172970037520e-11  1.2451565541319122e-10 6.7221254828759702e-11 -4.2087144887169411e-11  -7.9930721570245737e-11 -1.3131397274857837e-10 5.6533072688628713e-11  9.5991124451751800e-13 9.5948051194869478e-11 -3.2273456641172198e-11  2.2459336254633419e-11 1.7482073518467062e-10 -6.2060414698310096e-11  1.2833395691057802e-10 -3.1222770626501393e-11 -9.7295113205980192e-12  -7.5499135982689801e-11 -1.1942864384981749e-10 5.1857038838137859e-11  -1.0675017147323030e-12 9.3047226557726572e-11 -3.0983444542278636e-11  1.0885555276734540e-10 -9.4133509465009138e-11 1.4395700969004696e-11  -1.2535031975504544e-10 3.7322314439825805e-11 7.2182166859621739e-12  -1.5553713018150488e-10 -2.8479115923633883e-11 3.3995275724270199e-11  3.2180874815699752e-11 -6.8528522402214215e-11 1.7881732593005243e-11  -1.1854333555535441e-10 2.2885755565582233e-11 1.0980930532916056e-11  -1.3464525400624125e-12 -7.4261658984480455e-11 2.5073848673404507e-11  1.1673072553580993e-10 1.1915084881370209e-10 -5.8248372474714220e-11  -6.2665319925769343e-11 1.7381719292909615e-10 -4.8337204276239666e-11  1.5108271848008659e-11 -1.8083120767903354e-10 5.8164547514271555e-11  9.7409377245328430e-11 1.8991284485331905e-11 -2.1677307252457774e-11  1.6314972495485700e-10 -3.4513065133553639e-11 -1.4103296704238795e-11  9.0762101957930386e-11 -1.4190781107753907e-10 3.3235571638290329e-11  1.2932267564084737e-10 -1.3656139867497546e-10 2.5381367445268452e-11  7.2033570460525079e-11 1.6610092920818661e-10 -6.6937459659130021e-11  -5.1889869000168186e-11 -1.9859051212086597e-10 7.4646738973746328e-11  1.0388849809539170e-10 4.9869217572580706e-11 -3.3033892511846347e-11  -5.0469594881931981e-11 1.8942416784060354e-10 -5.5480246782028524e-11  1.9811577554009538e-12 -1.9005880850891201e-10 6.3318312296488753e-11  -1.3140176791595911e-10 -1.3657598230977692e-10 6.6389401015965451e-11  4.4277495259094064e-11 1.8725809911336544e-10 -6.9655585533972860e-11  -7.7297280411077746e-11 -3.9236407539778149e-11 2.5292228199300788e-11  -1.6397242240842541e-10 6.3866286433806765e-11 4.4054999094012317e-12  -1.6237090764581089e-10 5.7640503211001877e-11 6.2379687274789226e-12  -1.4739136251297556e-10 -7.7350837446198381e-11 4.9076009093475077e-11  1.2777803364944320e-10 1.5495483222408580e-10 -7.1972574135468258e-11  -1.5860483447214767e-10 -6.0758011379138635e-11 4.5284389228799907e-11  1.6755262094031319e-10 4.4778852185204404e-11 -4.1341903374400605e-11  -8.7191958698402321e-11 1.2431196475331822e-10 -2.7906112618112433e-11  8.7561897276307091e-11 -1.8445372100217721e-10 4.7982821778897846e-11  9.3504899357461298e-11 -2.7154136945706109e-11 -5.6142164988525582e-12  4.4761956468588880e-11 -7.8525270910776554e-11 1.9249969598962483e-11  </DataArray> 
</PointData> 
</Piece>
</UnstructuredGrid>
</VTKFile>