<?xml version="1.0"?>
<VTKFile type="UnstructuredGrid"  version="0.1"  >
<UnstructuredGrid>
<Piece  NumberOfPoints="201" NumberOfCells="657">
<Points>
<DataArray  type="Float64"  NumberOfComponents="3"  format="ascii">-35.29740002073932 73.92482491856728 227.6204810238124  -2.777231540198958 -76.59304147152925 -229.6060159691763  3234.221228406466 45.20353143138982 -311.4317348561672  5461.340094063166 128.0685490162516 -382.5678378568422  6688.275558498384 171.1738114532575 -400.9563259593397  7308.443905835108 186.0647619726134 -296.3051645355952  7501.463527933155 187.5768004936217 -117.6076403058342  7310.360050334285 188.2603686312898 58.83962388636574  6689.427405714307 195.3278302044525 167.9866221073615  5463.695365642897 202.8201147465532 179.9504236552865  3216.765207822985 170.4947106413407 189.3479022053477  3742.045454538083 -1014.112214421215 -673.3115442656651  3933.77631170992 1032.342529752353 460.139165641591  7190.134763146978 -797.7635065714217 -413.4687627823893  5873.494391173615 -873.5316541348359 -115.6232628291396  6875.060537007327 1190.667044902968 348.6726226440566  6884.032058431851 1183.915031863555 -107.7083841253713  4346.44230138499 1083.752220866566 -38.28743288373272  1510.509021897408 -870.9322811110158 -125.7021185671167  5834.022894161893 -832.6902783025128 -650.7186678788347  4109.091252662397 -1747.461427855523 -861.772725931999  5663.102883408665 -1674.384198101071 -777.6715516484709  3874.080894324532 -2390.858037399415 -912.911029987325  5242.139325289494 -2233.805930472577 -759.1353463881022  3275.731390645497 -2793.221315260019 -851.2172090712507  4651.030322986249 -2523.818739187103 -677.0165618206619  2383.947451827037 -2968.191033826118 -754.7988925655191  3644.455536649103 -2610.388662950907 -604.2865201756778  1174.503090990377 -2930.331283620159 -662.435842726486  2448.674521008938 -2427.625857224309 -542.292706095822  -334.8169454064116 -2673.818464333625 -555.4305295618037  5529.138643083836 -2069.56522441089 -483.9110434583635  5950.377135662531 1183.132927006232 451.6969333194444  5770.332405159877 2038.035965462836 608.2136449612574  6539.137642522914 1982.908487917437 421.3898320030478  898.6020695807928 -2014.554895892813 -437.4305300206383  3664.849571430069 -1700.306602560293 -370.8945765814901  4396.503927940706 1931.925142877073 698.7895157359522  4029.090509619942 2621.027903110148 797.4076140013407  7210.832760334693 -774.0500436285541 -236.5028469107193  6375.531253422799 -1736.914400473414 -517.2997487229059  6819.943174404266 -814.7030950352862 -564.1713037008146  1683.764886091162 982.1612976939585 69.96930203514871  5958.599268556996 1120.308209109325 -123.8229491518357  5781.057536550726 2019.198153411233 135.654039408061  1527.974267944201 -2852.916265544885 -951.3510008382256  -1488.581586511787 -3061.346345497014 -631.04988123848  1814.069486658772 -1864.876273977168 -861.630071649403  6520.841662153245 2004.095350678479 175.8015419901539  5133.139042206863 2670.217213632177 378.9686176085522  4000.892170234204 2552.096911903739 371.5491595928032  3104.31453985566 3013.742583383186 557.2981468048314  1578.741827322172 2794.099318469393 542.3693085575205  596.2706031937468 3100.18090050401 673.687258993374  -1181.762389224887 2768.440886250488 612.5268176462915  -1960.969981000674 2982.591385449316 715.2940648472281  -3648.281111737092 2581.549739298684 593.2734037714389  -201.6211321903352 3170.594890295243 806.0200162747802  -3026.562259275973 -2706.83355526649 -460.9611138150806  -3811.59282039458 -2984.871807783426 -525.8578874938547  -4142.378947951531 2668.037920170521 690.9715714161289  -5504.477103166884 2117.642094818542 504.3139631563349  -5744.562071512682 2112.795406036912 622.70341162326  -6736.222700040239 1374.98509344339 363.0320558771726  -6799.926199007881 1300.789126607968 517.6604937056496  -6288.065968184115 1294.314938185513 245.2203675155107  -5653.085584801499 1959.121748517519 760.780654641042  -7174.735708141016 476.2142281525585 97.10630247259563  -6550.439894447386 1051.619309942336 629.1539518504042  -6592.016061111823 230.466264760197 -57.42325024100517  -7053.230403648776 -677.3289742075539 -228.764320182123  -5158.128142491288 1654.894357024197 823.3791666158768  -1603.533496088524 -1491.36991686815 -227.2565150734946  -5116.729552849158 -2462.558736688927 -298.9665424805372  -6189.537237923912 -851.3352850965979 -359.9606817577442  -6329.437316526665 -1688.705643818415 -503.5112627923376  -7284.760055727454 237.2964917093697 360.7127662847697  -2883.17944159348 2181.36835767624 484.7789237430092  -5890.608370854738 646.9396462631343 613.150002051234  2154.910101328746 2384.972220281663 875.5986213218845  -7076.83126375256 -1433.534054072239 -262.3619041661409  -5377.74922270477 57.98844542557602 -110.9483486336738  -4143.334752132436 1292.157304778231 762.4461445989177  -5030.755436106976 -1773.380053604073 -636.9134962135853  -4969.594085472669 -2459.480490981716 -712.5687954446055  -3951.244837399106 2410.523167608223 914.4860616011853  -2310.002633227522 -3199.406655406764 -707.7274728114772  -4633.744585393334 145.6425380906473 427.387206327944  -6161.99953060842 -506.5175795602474 305.6639895601738  -3204.807310111693 -2405.960206628946 -840.1389980162623  -3059.228020887395 -2918.956402032968 -855.6648758616922  -2989.892819155489 -1643.201994828867 -676.7864866085147  4256.154133336435 2999.664066362875 597.5006845057246  -5505.024337141383 -2628.944913839345 -395.3245670468761  -6516.20109881175 -1915.064708730678 -131.1367460992159  1746.907939976032 2907.834953385192 911.3957836784431  -404.4998553633027 2602.054492060754 964.015501484624  -59.38325771810957 2067.226045932807 872.9947275059224  -2712.632891989216 877.5586831034453 600.4168084710674  -4248.566351259542 -2035.203638682965 -225.5219808473394  2397.973279294488 2323.37896116317 400.6842333411733  -4641.845760179056 -2863.271464513558 -680.2695389656616  -578.6585074662704 1724.637616357347 355.1891808211289  -1670.935705598784 678.1322165222433 65.46195133678208  -739.0777436798089 2990.536981157168 931.9214152171161  -2322.423676506916 -585.0874499957773 82.86085839538377  -856.44890605564 -2750.234691049279 -952.5960465373806  -4486.501243384193 -1007.41009114654 66.41396408137925  -6015.612218411629 -1610.936940872189 -19.65675319313072  -6952.501255102813 -893.3889541058718 186.0630632567294  -7265.381726023485 -1109.221974552697 -0.03888507046186193  -7457.223234238726 -308.8381723147532 37.52884635640806  -3586.887439109571 1389.738601475457 287.8742457383394  -5012.050078356378 1524.307671079987 305.9124496701494  -965.5524858196457 -3073.405160894348 -906.8469151824045  -117.3598596789524 2465.356143801235 517.1847976114817  3460.291848096333 3011.20017669539 774.9152660627739  6822.283633618707 -761.2088379774515 -116.4992894834605  421.7652097122443 -1073.057807125185 -586.062647462943  1059.752623646088 -3084.199596462752 -867.5899279660518  -2631.624736972919 2134.584154669662 932.9413555305238  7279.601532766771 1120.607897832173 -6.535499041839663  5225.654082705338 2655.591760338404 631.8775665315114  5954.849979876088 2476.71526364219 411.8253818125266  -6074.735929278646 -2283.477672529251 -520.6652180841446  -2512.091933276837 2971.707223077261 826.2245070120764  -4283.967012810452 2594.526342832526 811.3139723841845  -699.2334493267427 -2161.196516053572 -876.7388178651942  -2480.597081897165 -560.8516743429745 -338.1204621034041  -4746.012377973907 -851.1680263232467 -392.8842105668768  2119.085176218502 3192.976845684408 717.3390765486153  -38.65032307263066 -3168.080606621484 -751.0937287034304  4564.651069594209 -2037.559833894839 -440.2072373983915  7278.928473605321 1132.000180265711 167.8606423808513  4177.974922231897 -801.2532323521116 -114.9029390635857  -6570.973083140196 -2096.421172580673 -305.4047050415592  -1914.903077350448 -2311.245959507164 -423.5679108572005  4581.740857144883 1847.46111739605 159.5162400232797  -6856.429826172658 118.7816904617995 450.0608329962281  1810.437008168847 -2450.80839558724 -965.7816046562672  2520.938912859554 1819.079662394814 736.1879680313643  1393.734732971987 3151.317188864899 847.7231186210109  -5040.929231710364 2028.35744552612 442.7152061521493  6428.372212029559 -1540.824614444313 -631.5792255040476  -89.71049342057235 1007.330958184563 550.4481232827025  6060.38211705612 -1497.213855439282 -301.7334650993402  -7259.022093415294 696.8676968944261 289.9341502918467  -4299.336293623558 -3012.15337386689 -609.4478945331831  -2808.334854334966 -3145.913496580642 -783.0574233718585  6888.951393159871 1790.985362943451 230.0405948787878  -2061.492215201033 1707.897801047973 829.6171463813264  2911.196654619602 1652.133717478457 206.8637581289419  -3449.976684351805 99.62290959769275 -96.47176035342876  -2847.971268964007 2793.413053625713 912.9488172264045  6555.968348707752 -1425.023266109868 -328.8801048516676  -823.0971960788132 -3198.764772753961 -825.449469810372  -5652.111343313044 761.8611154658851 96.98988499305115  -4214.420165575111 633.3946887692181 71.1991609887158  -2247.225657539619 2611.720986450692 967.3365130752136  -5610.752992925136 -2628.953832337855 -500.5210713878839  -13.50922350315978 -1.48977483335436 -0.3894378537832481  -3284.855518625131 -1525.069119045995 -382.3367404335062  4734.963609015895 714.6366557858918 88.22062190092389  -1849.260200087961 1429.154978429761 570.6285045463482  3521.954012863799 -938.5203880322678 -344.5220155372129  -2500.718700018517 44.62722824938911 -9.979070347875576  -4791.220771718981 139.3555987624011 176.1600205122561  1121.060557066943 1685.684467586171 465.2303131772852  3357.717394326327 -747.5547529165329 -413.9374700354192  -2784.367820201345 -225.4961439682199 105.8035732390864  2659.388097439441 1362.799234149971 452.0213864540157  -1089.401484929308 -1479.596496882389 -544.2702763070115  644.0726722132852 -1970.214226058632 -638.0948940680607  2184.703137788752 599.003826504706 26.48109807527171
[...]
<PointData  Vectors="Forcing"> 
<DataArray  type="Float64"  Name="Forcing"  NumberOfComponents="3" format="ascii">-3.1237570908294660e-06 3.2669752870895484e-05 -8.3776771632191715e-05  2.7636404863104768e-06 -3.1314319743607634e-05 7.9504732675817209e-05  9.3159419440801922e-05 -2.8822590548397150e-05 8.1997634643771720e-05  1.5436042695415043e-04 -1.9065715111729189e-05 6.0151341909274670e-05  1.8684971010922441e-04 -6.7178810653168131e-06 2.7796374037964409e-05  1.8737331064793564e-04 -1.0992554051253702e-05 5.8638425938732862e-05  1.8339652972325937e-04 5.6219164562105867e-06 -1.5417232634046844e-06  1.9001286321638066e-04 1.7993281330979541e-05 -4.6726534169739928e-05  1.8091417139418130e-04 2.9106020617861187e-05 -7.7215106565750621e-05  1.5064422861499769e-04 3.3030113814637470e-05 -8.0133788153635035e-05  8.8208614476942886e-05 3.0769998165044485e-05 -7.6487597660787859e-05  1.0521101674596629e-04 -3.9474406938735417e-05 2.0201971232424782e-05  1.0727366235416097e-04 5.4959607452215326e-05 -7.6334916213994028e-05  1.6606461059409184e-04 -8.3906841310759536e-06 2.3195757031125000e-05  1.6204853919532446e-04 -7.5612563922137608e-06 -4.7270110482283674e-05  1.7678844252096395e-04 4.6780990607545939e-05 -8.1108545387168326e-05  1.8810578070591386e-04 3.6791351540089971e-06 8.0926726913015841e-05  1.2532100968245928e-04 -5.1529616234544042e-06 1.0305111572751280e-04  4.0350427267043684e-05 3.0819731869576803e-06 -8.3823338544676912e-05  1.6183153804238701e-04 -4.5651233704818817e-05 7.4325983105281716e-05  1.1414129065570945e-04 -6.3627039388006778e-05 6.0757090203239627e-05  1.5156688159136968e-04 -5.0153180929626877e-05 5.7620694604887436e-05  1.0567065335258527e-04 -6.1554321402922845e-05 8.9103481178750714e-06  1.3513263938796639e-04 -3.6485122377055565e-05 5.0360273501247468e-06  8.6794738259646744e-05 -5.0405025648433372e-05 -1.4730434700556385e-05  1.2248245103575427e-04 -3.3593773276802178e-05 -5.5101422355746995e-05  6.2793537715020574e-05 -4.9414882570620588e-05 -5.5526575594762110e-05  9.9071988048740834e-05 -4.7923077329991933e-05 -6.9613953387081534e-05  3.0916246789166732e-05 -5.5028424155734023e-05 -7.9011532468027115e-05  6.6306430360163981e-05 -3.6531845864981960e-05 -1.0589249529855264e-04  -1.1689714729815320e-05 -4.6344604635758598e-05 -9.1127859050278934e-05  1.4912189364592511e-04 -2.5719000584627608e-05 -7.9886615638999185e-05  1.6344346863245271e-04 4.9227717594348521e-05 -5.5302454329503103e-05  1.5420083549001580e-04 6.1633079131682758e-05 -4.9618174216308180e-05  1.6268149843285231e-04 4.1815895379351790e-05 -4.3133335080007491e-05  2.2864151016742192e-05 -3.0272712609860356e-05 -8.5410358842021565e-05  1.0032969779444139e-04 -2.3477363039039605e-05 -7.7843344704345437e-05  1.1987071722576230e-04 6.5171181768329721e-05 -3.7633345869376722e-05  1.0712813817330252e-04 6.6213839361006194e-05 -3.5514709918195870e-05  1.7690683578282736e-04 6.5305188082879540e-06 -5.8186810532749399e-05  1.6138680002581219e-04 -1.4089320867136209e-05 -3.9983843762697576e-05  1.7840615568020734e-04 -3.5681729353893110e-05 7.7695502470897268e-05  5.0013202374150373e-05 -2.0092368543098919e-06 9.1625119161892245e-05  1.6865507307811369e-04 6.5819734910341332e-06 6.7186243779706616e-05  1.6241363288466894e-04 2.6089047425485990e-05 8.1066468492128947e-05  4.1385905377117832e-05 -6.6701900104443763e-05 1.0079805122171551e-05  -4.3601487012682933e-05 -5.8312689694251783e-05 -7.7805521011531720e-05  5.2138338642164055e-05 -6.9826059192150806e-05 5.5083594295016120e-05  1.7689339393297022e-04 2.9800794619279840e-05 5.4667175194997375e-05  1.4302627940056235e-04 4.2901146583144902e-05 7.2821124324582990e-05  1.1400220112513659e-04 4.2045244015638351e-05 8.2202630060467500e-05  8.8229179920920839e-05 5.5404596437647887e-05 7.4181994197255514e-05  4.6069633357725446e-05 5.5326401574234639e-05 6.5489337608732294e-05  1.8620503955177334e-05 5.5976909960253084e-05 7.7071874654959619e-05  -3.1023121981967649e-05 5.0690849169916469e-05 8.4671553650179430e-05  -5.1549604770392623e-05 4.8239784568072602e-05 7.6526852297327500e-05  -9.9649883654273812e-05 4.5720834242978940e-05 7.2009713259764031e-05  -3.6077560075289519e-06 4.9706300220125217e-05 4.2238739790881567e-05  -8.5908724388731201e-05 -5.2400910786521831e-05 -7.1751480198291569e-05  -1.0724297247874262e-04 -5.1515551319420249e-05 -7.3501631302483068e-05  -1.1052173708150657e-04 4.1051774307736049e-05 6.0749042404159235e-05  -1.4879365854317107e-04 2.9948111484578691e-05 7.2372975477526423e-05  -1.4738602203206546e-04 2.8633889642272629e-05 2.7976704036012036e-05  -1.7479251694575349e-04 9.4686888320206827e-06 5.4928458036250570e-05  -1.7090330167476492e-04 1.9709371310086299e-05 -9.3248553165547604e-06  -1.7219839666176518e-04 1.0532764447355897e-05 7.3093334651058153e-05  -1.4725023541913821e-04 4.2812057999744862e-05 -2.9306964138489298e-05  -1.8422908857037014e-04 -1.4463554396118235e-05 8.3681672847597192e-05  -1.7204147135649949e-04 3.5852583140164373e-05 -5.4036823909492317e-05  -1.8134800111284334e-04 -9.5844564197785095e-06 4.8001325165707975e-05  -1.8374518602824646e-04 -3.6600506282588900e-05 7.0337243771770769e-05  -1.4229474850371710e-04 5.6274573855017498e-05 -5.2277302178838607e-05  -4.6905210892373557e-05 -1.6541643302613900e-05 -8.2167509588158889e-05  -1.4382199979487724e-04 -4.4586877703188113e-05 -6.6739603209757818e-05  -1.6941398359127157e-04 -4.3304452662689745e-05 5.8384035860288868e-05  -1.6625070529665225e-04 -5.7709445248645786e-05 6.9533027839067897e-05  -1.8241721193608257e-04 1.3548908845404042e-05 -3.9115081546869118e-05  -7.8322418569923649e-05 3.5871860554660764e-05 8.5333774624481927e-05  -1.6479931067752253e-04 2.6487544612090264e-05 -1.4849214250629343e-05  5.7205813913615127e-05 7.7557838225353091e-05 -5.4976313811083419e-05  -1.7247607482504142e-04 -3.2604722342575452e-05 3.3783613555975169e-05  -1.4861315552730818e-04 -2.0832088952004318e-05 6.7194209483222998e-05  -1.1713633152214799e-04 5.8217526317277956e-05 -6.5359918033938943e-05  -1.3828273567405405e-04 -5.8509720070654773e-05 2.6711566111946223e-05  -1.3230383096801934e-04 -6.7602079633283401e-05 4.5852855656149085e-05  -1.0423823002439709e-04 5.8067481142255030e-05 -3.6921525149555949e-05  -6.5086541129521366e-05 -5.9698428220596247e-05 -5.4237135555786921e-05  -1.3112659216155603e-04 2.8886725427304128e-05 -6.4880851664787930e-05  -1.7237557445780983e-04 8.5562301797282618e-06 -6.3289045299689926e-05  -8.6027466700359627e-05 -7.8427062647490494e-05 5.5997208154753063e-05  -8.5170767288685496e-05 -7.7395712846397850e-05 -2.1565450234252632e-05  -8.1446694948136342e-05 -6.5207828495870393e-05 4.9970093033683328e-05  1.1421023461572853e-04 4.1702208039087410e-05 4.0503794483285463e-05  -1.5089743390391544e-04 -4.4075960656686070e-05 -5.8529900161486029e-05  -1.7793741872929923e-04 -2.2581096412031651e-05 -6.9651036910097430e-05  4.6890083882571699e-05 7.5349098702735302e-05 -3.3152455770343826e-05  -1.2429332426521634e-05 7.7089531696734106e-05 -4.6064652329046701e-05  -3.0338534080691126e-06 7.0456508635771947e-05 -3.3726910272147273e-05  -7.7007537376640653e-05 4.1814625659215662e-05 -3.7699007378691502e-05  -1.2004475590892701e-04 -3.4458587728874142e-05 -6.2361924910353907e-05  6.9223756191107464e-05 4.1478163727627842e-05 7.2503842760056409e-05  -1.2241655692129833e-04 -6.0565054789490965e-05 2.1858333725957825e-05  -1.3857293720241633e-05 1.8248174380611488e-05 1.0086382983498175e-04  -4.4060341243411026e-05 -1.4685590471864484e-05 1.0385566121821596e-04  -2.0052415096592878e-05 6.2589225563702502e-05 -2.2882054166280370e-05  -6.7683881517862173e-05 1.3220558926080786e-05 -8.6885502360697765e-05  -2.2625550183476839e-05 -7.5946288675130086e-05 3.4249361916337370e-05  -1.2750021216670939e-04 1.6182245100550446e-06 -8.4035062434414102e-05  -1.6948206692945272e-04 -2.0595402470096931e-05 -6.7940899387502275e-05  -1.9092573792977078e-04 -3.6429567551966129e-06 -6.2416483683263343e-05  -1.7866054129373474e-04 -8.2843777563193916e-06 -4.0928240211216497e-05  -1.8372132445682845e-04 -1.3568778545935250e-05 2.4693721168312519e-05  -9.8476191644007233e-05 6.9318620740155523e-06 1.0509584858584659e-04  -1.3793330074896924e-04 2.2586795594605350e-05 5.6939343520087022e-05  -2.6585547660740089e-05 -6.7094584588070041e-05 2.0292583387204052e-05  -1.7550237094156201e-06 4.2279660711392145e-05 8.7029931160757410e-05  9.1643886558696766e-05 6.1301600260738929e-05 -2.0841422745141721e-05  1.8395966032147207e-04 5.1916128746909996e-06 -7.7414488106246246e-05  1.3811326280772771e-05 -5.1155529717252302e-05 5.1392548919432171e-05  2.7410075359937949e-05 -5.6840879753215858e-05 -1.6481559725825009e-05  -7.3809895615901060e-05 7.2388343932238428e-05 -4.3782071002260246e-05  1.7993092808010202e-04 6.4683553708188364e-06 4.7912739851633095e-05  1.3709478982338577e-04 5.6548539199074558e-05 -3.0811072488531481e-05  1.5486785307719744e-04 3.5383634244373285e-05 2.7165002396485284e-05  -1.5212999409532375e-04 -4.5768081705372102e-05 4.1406837069838523e-05  -6.5384970775231234e-05 4.7254160463608430e-05 2.4761046703003192e-05  -1.1141886120796224e-04 4.1498332997527002e-05 2.9512239456612144e-06  -1.8042171990081395e-05 -7.2071260134649900e-05 3.5600739358275021e-05  -6.7323794399354043e-05 -3.9815883228179881e-05 6.8715882998295028e-05  -1.3005415520194816e-04 -4.3176937308707078e-05 5.0772115003496581e-05  5.9925605608402016e-05 5.9420428008230898e-05 5.2871414343989148e-05  -3.0317737539581974e-06 -5.7308934969537299e-05 -6.2098704275753222e-05  1.2535322194828896e-04 -2.6671106817257380e-05 -9.0100546365715496e-05  1.7290164953540017e-04 2.7238628612567140e-05 -3.6161081804157227e-05  1.1468166048559182e-04 1.1618330816682690e-05 -1.0496142356832087e-04  -1.6928396558267453e-04 -3.0577646811388997e-05 -3.1327138936875202e-05  -5.7045694865367740e-05 -3.0343785758234148e-05 -1.1200780743329309e-04  1.2969848166811387e-04 3.0806794820609607e-05 5.7357858039570188e-05  -1.8718015797956848e-04 2.3713377658929477e-05 -6.4834975198926409e-05  5.0707080507553905e-05 -6.7468564717647954e-05 -2.2397919837809761e-05  6.8879499911067677e-05 6.4700305136793817e-05 -2.9089740875150548e-05  3.8311207981229969e-05 5.7739945813131283e-05 2.6871983500583843e-06  -1.3807656056891976e-04 3.0272632301876897e-05 8.0353558939874468e-05  1.6235360933039694e-04 -2.8150635868216049e-05 2.9550070946394203e-05  -4.9734293821372792e-06 5.1169107894636006e-05 -5.8365079016694271e-05  1.6630198631895912e-04 -1.7769537331853679e-05 -7.1019577012454573e-05  -1.7158502216432726e-04 1.8841085204508462e-07 1.7710259195943695e-05  -1.1699980674690840e-04 -4.8737546930468930e-05 -4.2339489602599574e-05  -7.6647638054252635e-05 -6.2778186576826486e-05 -1.3654019554223673e-05  1.7684204598544047e-04 2.8745336115908601e-05 1.3817960047856223e-05  -5.8432757553816131e-05 6.0310661291588990e-05 -2.2033889313262748e-05  8.4198626361038905e-05 1.4959630865291910e-05 9.5874947604743490e-05  -9.4333341767802148e-05 -2.4709442718928419e-05 7.8301014634076470e-05  -7.5716291593497901e-05 5.6360391127201755e-05 -1.8996179676833915e-06  1.7245582995802075e-04 -7.2238676645946773e-06 -7.1484166496473965e-05  -2.3724929052604053e-05 -5.7099502840199712e-05 -2.8957528848078096e-05  -1.5626147098359667e-04 -5.1261292592887047e-06 8.2769929161285652e-05  -1.1575678680547451e-04 -1.2995446955569926e-05 9.1835751707644445e-05  -6.1543054719746627e-05 6.9580650890520133e-05 -4.4992589917190101e-05  -1.4338969574564334e-04 -3.4650129873356619e-05 -1.4197782552934769e-05  -4.6971367323863467e-07 9.3360635534920619e-07 -1.9167439132901170e-06  -8.8201379431782575e-05 -2.9169032319097568e-05 -2.0132543141867666e-05  1.2282499425234100e-04 1.6884478493838115e-05 -2.0116822784252813e-06  -5.0288534783755809e-05 3.7545048170399250e-05 -1.8542980360453048e-05  9.5674143425364961e-05 -1.1529128177605332e-05 -4.5665331788283924e-05  -6.7634804806414312e-05 -1.7143762162821026e-05 5.7649714329723509e-05  -1.2472386894866994e-04 1.1977661965514771e-06 3.9361787400962072e-07  3.2540603329661062e-05 2.8888386062353552e-05 5.7286029141316008e-05  9.1720021094905061e-05 -2.6002069657164324e-05 2.2302034688267254e-05  -7.8323159303591940e-05 9.5108927626254606e-06 -4.8495802122728294e-05  7.0860951134906277e-05 4.5657796247947446e-05 -4.2720469416433761e-05  -2.9329473744931129e-05 -4.3400601298759087e-05 1.2765911243124603e-05  1.6947818864756146e-05 -4.2448773255233706e-05 -2.5837239729350815e-05  6.3214551764516165e-05 -5.4393655478259169e-06 7.0170733259565941e-05  -2.8563656417627513e-05 -2.5061516457309044e-05 -6.5860651496690658e-05  5.0719850038669038e-05 1.7955619563194700e-05 -6.5269935429549522e-05  -8.6982451107594884e-05 2.5912173882814955e-05 4.6000668370863666e-05  -1.2477842561435019e-04 -2.6782277877900373e-05 3.3316353249136286e-05  1.3231747524295633e-04 2.1719262990866494e-05 -4.9616104189937813e-05  -1.9833363714535836e-05 4.2821277568114762e-05 -4.7427200206952672e-05  3.1428509800021152e-05 4.3816836938893056e-05 -5.0422651877522178e-06  1.1890384686689773e-04 1.7963517484247904e-05 6.6476684467923290e-05  1.1074396879946122e-04 3.3962358676395257e-05 2.5311799264612565e-05  -1.2431408801464542e-04 2.9277523416088918e-05 -4.7708727705105889e-05  1.3383330765484187e-04 -3.3882551363469389e-06 -4.0134157860107233e-06  -2.9741530945695933e-05 1.6190318641911013e-05 7.6780783592285439e-05  -1.4091540721279994e-04 -4.4426351944855616e-06 -5.6612955265522696e-05  1.4378839968573785e-04 -1.0709790070197549e-05 5.7401408448197710e-05  9.7857698059332582e-05 -2.5067987551597100e-05 -1.0819593174892342e-05  -1.3391938178459732e-04 -9.2535343585278454e-06 7.6578329181058657e-05  3.7380827297165918e-05 -3.6397245135466231e-05 4.7900654711890488e-05  -5.5111687917442535e-05 -4.7687355356964848e-05 6.9295251044777578e-06  -5.6556653420158759e-05 -3.8933328809858818e-05 -6.7713034868742381e-05  5.3846694289107603e-05 -3.0274119186674658e-05 -7.4522044140437266e-05  -1.1191959041455608e-04 2.2893377467924745e-05 1.3477659421978229e-05  4.6175938081885701e-05 -5.1763084905382115e-05 2.8392196340528686e-05  -2.8632554454542364e-05 3.7553783771153201e-05 4.7140926379732161e-05  -9.1577183961985721e-05 -4.7393844467085620e-05 6.1506509174103017e-05  1.3170594368459000e-04 3.5095155685499589e-05 -4.7105739364598216e-05  2.2791781778406110e-05 3.4747870405896770e-05 -1.6012956461096524e-05  6.5021961212847381e-05 6.3480970946504325e-06 3.5012097939287773e-05  </DataArray> 
</PointData> 
</Piece>
</UnstructuredGrid>
</VTKFile>