<?xml version="1.0"?>
<VTKFile type="UnstructuredGrid"  version="0.1"  >
<UnstructuredGrid>
<Piece  NumberOfPoints="201" NumberOfCells="657">
<Points>
<DataArray  type="Float64"  NumberOfComponents="3"  format="ascii">-68.09143603944317 -42.6231092482827 138.2914924533953  38.57174160116087 50.10045375346072 -136.7168345259064  2380.664898913529 -277.2490211304672 -368.4474901376934  3963.757209788606 -472.7412406308476 -535.0944058801775  4816.717859129194 -548.2881453940533 -600.6218692145495  5251.4212833912 -568.7534103381072 -542.8260275082856  5389.412335637306 -573.2416118225989 -420.1788971977706  5257.388535970584 -576.3620416805909 -299.5331458544292  4819.124934235534 -572.44199462283 -219.9502069525018  3939.9645412772 -528.6391338804178 -172.4034499618638  2307.799474864576 -356.012984977756 -64.77510537957582  3042.060738079512 -1337.356248701206 -227.8935354039318  2600.078960447409 373.3405195441549 -254.0580721848107  5305.869826805148 -1376.680611580887 -351.3141405301117  4400.690449612818 -1450.059236406301 -8.829277093609686  4790.126568731476 261.571063761856 -389.7348734308122  4772.955904485792 270.0951986192576 -687.6567906653282  2866.780452616231 512.7587805700294 -615.5664580699001  1361.872048250232 -1121.023711315818 230.5843814226037  4418.66593505514 -1354.712212798751 -409.825654137177  3426.480076596036 -2043.258707713103 -146.7408187775134  4412.21369186993 -2069.340983423499 -250.0963218397665  3327.463899696309 -2576.579196634684 -24.05831207002848  4173.054749111729 -2512.091399754574 -80.85658255703089  2958.25166052752 -2862.430324629866 127.3963657071246  3799.970120094934 -2722.666806149071 94.53385580219744  2383.245830885874 -2928.479760863212 296.587783162987  3145.750575641272 -2740.431109628411 275.6861015299785  1577.677299778159 -2779.798741724338 454.8756472667764  2337.632637762885 -2510.001528796201 396.5364786035703  506.6550264435027 -2397.665000559975 574.3244402070029  4316.328673287809 -2390.237008083662 77.79836805210314  4105.274088370977 308.373215469465 -345.586493237166  3779.907679156456 1061.273539167625 -458.7762945769222  4388.898565736324 936.3316850892036 -520.8771481402954  1219.820204532374 -2026.642046189615 452.1106889186636  3030.164194682044 -2030.607023424521 249.1219927942888  2724.883659166075 1143.067755013815 -397.1816727885204  2263.885752033898 1790.119109489011 -464.4789970901126  5311.377177801206 -1359.098835923884 -230.491613854844  4853.603093704026 -2134.11412043889 -119.8081720312431  5065.949356528816 -1387.18117246753 -427.1845688609065  916.6215438998483 807.3684925087372 -434.4448630070739  4072.060942755885 323.5781956501779 -701.5557060124038  3745.058067226515 1070.818816520268 -756.3176100988892  1844.352668306363 -2757.293790032533 201.826104668028  -238.0532725080877 -2544.193144638572 600.8294631275151  1906.002179718178 -1926.1222001345 44.51061376891218  4349.921613769329 961.2412512368345 -685.5894461358502  3112.696481453636 1668.585247505103 -712.9143244043023  2215.823196607991 1761.975378102299 -734.1577042092739  1447.236556334341 2259.50171319684 -659.8448246042524  350.9625423769347 2321.718189481844 -633.2133546989348  -396.414945713792 2693.763176823025 -533.0566753354467  -1557.143155680968 2652.025871074329 -475.2079288112143  -2106.709469651773 2899.67144566858 -363.1077210932859  -3151.511762883489 2718.057043736841 -285.3998402083337  -966.1898069053119 2852.646906451183 -400.1574248873307  -1443.243973069262 -2034.363453919354 704.7024296572945  -2009.643305336309 -2123.609568784747 683.2496541111666  -3490.957052481304 2814.80027106767 -161.7978405093044  -4314.82669686901 2430.706958107573 -79.85282820142861  -4483.526194623455 2427.985049234675 49.00341848225477  -5059.402335838926 1846.391239342251 120.8723586719505  -5103.900299170838 1783.01833126927 264.5814428059448  -4739.962338402121 1790.58567719435 1.863442546642327  -4428.821253906528 2304.826890199715 172.579103104117  -5252.769467917474 1118.071345938024 206.8351892978138  -4919.697136283334 1575.870562144999 384.8929061078947  -4813.920008291996 929.707128064613 148.3486454052757  -5004.584067329818 172.6214841584344 324.6634350443202  -4096.973726752202 2035.744453975032 232.2891982192842  -699.3141131047443 -1262.24218226848 511.1037226882665  -3127.964593816075 -1520.435630940235 750.5641452825226  -4346.979072851012 -2.486317111862174 301.1330080855194  -4284.047141333264 -710.9275335626509 436.7358103137619  -5298.90844473167 917.039115581857 465.1773345176682  -2587.348413161518 2349.329177129395 -353.3589627435374  -4424.828939757207 1197.556452747652 444.7561251538773  857.6256487313296 1875.166142706979 -348.0580589396831  -4891.091795891797 -449.4487228080082 489.448936368963  -3925.612341576699 749.0196155554405 122.4411916374848  -3385.437109708155 1637.548391085435 212.6638850735779  -3259.262605383588 -924.6248880097306 399.5812444000534  -3053.875226995808 -1520.47988346756 485.0432292484613  -3383.829440664387 2598.446369415778 23.75445023800706  -822.5836879165236 -2523.615297407983 561.7376665075402  -3440.56973634351 621.7325703717303 432.7404267334853  -4372.229315425591 220.9855201796419 630.8170022111755  -1676.157223684714 -1731.195090955501 402.6531849205602  -1447.86450629773 -2182.371042034445 460.7633984345042  -1699.140038176197 -1073.284526648423 301.7523336611357  2355.965959678802 2060.762329641271 -617.8776564510438  -3423.036085093978 -1586.6368891392 687.5739847708339  -4353.756984620039 -889.7913287819071 709.4268404234984  447.5465214298741 2376.623338994818 -388.2388270201483  -1051.487266453876 2413.281823943421 -226.2778965498591  -703.5826548138898 1890.8320646564 -183.9923739492503  -2289.137036665902 1090.551403090104 173.4921785628628  -2533.024099427231 -1320.835936797662 728.4739559691703  1049.611349124947 1831.939769321589 -661.8546078505952  -2704.840984101843 -1896.105255278059 554.1894412454776  -934.5850733988052 1744.293899207471 -426.5693018185299  -1423.707708494949 963.4723411841487 -185.3855617660105  -1327.431696397123 2777.946610207254 -274.258599186828  -1527.096731572875 -355.669430147688 405.2734124280192  183.6977658958634 -2376.760294974363 319.1207943872628  -2988.51810851104 -428.4327443936264 612.3166540717884  -4006.838281282121 -716.6990315097892 742.518123202829  -4875.794390168276 -29.13145727286985 664.2216633502481  -5077.901371044374 -181.5071016476894 579.4452069976786  -5343.59925490521 475.7761276809333 393.0891451015618  -2930.794938029263 1767.63910452902 -207.2403715285647  -3912.892297055018 1957.918244255574 -138.1469822007251  148.2057025758738 -2626.32751773441 381.7118931886928  -776.7542708864596 2287.56303900782 -538.540067657731  1736.864580962095 2195.983305525317 -508.945318393529  5038.935545072872 -1359.986242735002 -116.4465905096952  692.8339646891239 -989.7285409507749 21.33353211120015  1541.402096712789 -2889.5312842141 306.3615972560239  -2507.473877559401 2256.267435253326 -17.6748470862264  5086.927385950698 189.2644969681138 -586.0399257807704  3213.22911635762 1637.010954716996 -543.636405639691  3825.505974863184 1397.269367537523 -626.622481459517  -3959.382623007496 -1231.070065704051 537.8674636317691  -2477.491263136733 2941.575627960005 -230.0653466327299  -3592.407507049461 2764.497891225384 -41.80072494005297  179.1902042717198 -1879.040395578166 247.3955069630229  -1644.200435417924 -103.102209144278 98.893704460073  -3263.679442364034 -117.2413196968557 255.3607842869574  678.8508186904476 2550.036491558309 -545.4503472488586  796.2902653666097 -2823.036276262508 457.6780239818349  3673.089246575856 -2340.417578288264 216.0488680876332  5091.447591792556 197.3180713224514 -472.5122713277561  3214.424711772031 -1312.181192310639 75.29309533029658  -4377.634153738995 -1022.582906045744 618.6663365959929  -695.8711230632809 -1894.305472594353 636.1285242145357  2827.86012095285 1114.57541289608 -722.2372211311351  -4985.783558856734 803.9800551504121 549.2439668899519  1999.112271933052 -2451.90495254554 117.8509678688603  1287.916781606067 1303.816846259902 -305.2479650555424  154.0351315987936 2623.404830174507 -432.3837862826554  -3995.627054601875 2354.823116138839 -166.5516482776932  4882.353256055806 -1976.574419978203 -255.8708602115856  -427.407278152665 875.5328752279711 -29.87952487511367  4604.873822402347 -1949.786444737233 31.47376437089271  -5340.275398434992 1291.039403324365 288.7362419852836  -2397.859536205912 -2066.793678585992 616.4213294757327  -1211.293592810189 -2402.276024936447 514.1743719358504  4688.055087393579 751.5633088210855 -586.4474947646551  -2040.837675863053 1803.709970346498 -2.279683071815572  1612.923334242831 1206.756509825715 -614.3820104535495  -2549.523725766946 635.3937569841719 23.86989902588586  -2694.92435185133 2828.919446093472 -121.7664169716987  4933.238876371967 -1887.548832577037 -65.30848853709858  260.2675869348323 -2744.794276988212 436.6127796432058  -4236.913064715593 1362.593546780831 12.25928597384127  -3212.991542193436 1173.709059363246 -43.02464351706975  -2298.340076169806 2627.790407686799 -109.2916811318426  -3519.035569320818 -1569.171764226013 611.3550660924293  -11.01516627201859 4.294665967026382 0.6429950737271878  -1950.25144257961 -986.8683520813756 459.9575173497697  3276.683459698854 67.47300593065575 -406.5939438519761  -1792.058685981634 1562.481537046819 -100.0987191936709  2821.290703546097 -1331.53029003701 -4.57395487802184  -1850.075058536886 422.9208846931914 70.11507153417838  -3539.130576520363 711.383029373414 263.2891482034542  276.88836497642 1450.365036002464 -393.7291499763252  2683.442359088882 -1097.519022029818 -124.1106037859044  -1985.173087303644 101.5290257388205 282.6218682818903  1531.069240353986 895.9540422698108 -338.8926462130794  -313.9085066380151 -1219.769389036807 262.8335784537601  1074.408040478292 -1923.276230425364 296.8200708108441  1416.036628345283 337.3642529287925 -320.5139990982097  -193.3368168667287 -1408
[...]
<PointData  Vectors="Coriolis"> 
<DataArray  type="Float64"  Name="Coriolis"  NumberOfComponents="3" format="ascii">1.8906909397643742e-09 3.0973693924431280e-09 -1.3343116567250140e-09  -1.1032104833055097e-09 -2.2441811341268623e-10 2.4863080701475329e-10  -2.1311844462484356e-08 -9.1437965109137621e-08 3.3964194586294562e-08  -3.1408919071181920e-08 -1.3728215881115154e-07 5.0900323520312262e-08  -3.3272628620078857e-08 -1.4874911435011667e-07 5.5032449757328340e-08  -3.3169304524691504e-08 -1.5119536004489559e-07 5.5835180159387217e-08  -3.3003231599670109e-08 -1.5169251464943791e-07 5.5975505129411145e-08  -3.3049559341835713e-08 -1.5164892811352191e-07 5.5968198561218400e-08  -3.2712613237100823e-08 -1.4948754764516434e-07 5.5191598691815807e-08  -2.9774296287817058e-08 -1.3753625855402467e-07 5.0728322729946497e-08  -1.8659073563304887e-08 -8.9440359221824685e-08 3.2878223847148342e-08  -1.9935710576760934e-08 -1.1851742405970324e-07 4.2813720508390074e-08  -2.6174160350161705e-08 -9.1859688191903013e-08 3.4870061567231479e-08  -3.1409879483777249e-08 -1.5557872763032019e-07 5.7025991789932489e-08  -2.7003856208555124e-08 -1.4780932313085227e-07 5.3731950371947498e-08  -3.5695239804541053e-08 -1.4056145651724787e-07 5.2672294719677684e-08  -3.6349345472622789e-08 -1.4022400363684366e-07 5.2662187439152141e-08  -3.0537553709544020e-08 -9.7706074997655819e-08 3.7513590704149311e-08  -4.7174020559863021e-09 -6.2963256424820171e-08 2.1821387483368727e-08  -2.8771363908816937e-08 -1.4827977878924147e-07 5.4167423730005714e-08  -1.7505647515015317e-08 -1.2975629749261266e-07 4.6194221581346780e-08  -2.4225454295643969e-08 -1.4699814018589955e-07 5.3023425234012132e-08  -1.1696186154216480e-08 -1.2615355974895500e-07 4.4074427144598320e-08  -1.9134495704876278e-08 -1.4061703895398634e-07 5.0086457349419864e-08  -4.4377580485315439e-09 -1.1731438823078692e-07 3.9973650939999411e-08  -1.3936367309798401e-08 -1.3356942933845294e-07 4.6909494605469115e-08  3.4530358196636641e-09 -1.0282222333879120e-07 3.3880856535856744e-08  -7.0001696081941307e-09 -1.2106322753531469e-07 4.1631707498984391e-08  1.1638538580013592e-08 -7.9343552421858210e-08 2.4733117624385835e-08  -5.8186919869608742e-10 -1.0135553385508206e-07 3.4024377158869220e-08  1.9013318127672480e-08 -4.1898302980197875e-08 1.1037000439226364e-08  -2.0558608907575262e-08 -1.4301154482563848e-07 5.1112080060899724e-08  -3.4730025047696841e-08 -1.3145764773781496e-07 4.9472630434171285e-08  -3.9008975707778121e-08 -1.1324840229258197e-07 4.4049282691937353e-08  -3.9356669416231358e-08 -1.2551732856345698e-07 4.8211483002260009e-08  5.7327499139279915e-09 -6.4074082313761890e-08 2.0549825390997773e-08  -1.2747054424976761e-08 -1.2053845566803977e-07 4.2359809795765642e-08  -3.3513813535942702e-08 -8.4831072136868848e-08 3.3671227367020303e-08  -3.7573037763474560e-08 -6.0355426609096572e-08 2.6115392926078269e-08  -3.1352309693951175e-08 -1.5552580164501088e-07 5.6999218889424481e-08  -2.5874576232711806e-08 -1.5060576098737931e-07 5.4490573562599622e-08  -3.1075257077971723e-08 -1.5499311297662600e-07 5.6777308768164331e-08  -1.5567886053986834e-08 -2.6116655166122233e-08 1.1191910560961130e-08  -3.6032625964068693e-08 -1.2983647627785564e-07 4.9134732787020733e-08  -3.9834504792438034e-08 -1.1136813212107404e-07 4.3549613970467818e-08  6.6439724838369423e-09 -8.8062408219980646e-08 2.8437584219754750e-08  2.9430853499289169e-08 -1.7410665828637111e-08 1.2004458674132709e-09  -4.6249211400361303e-09 -8.7792309946933792e-08 3.0119374337874475e-08  -3.9859407600862528e-08 -1.2397073995449109e-07 4.7772763585496729e-08  -4.2962507548901362e-08 -8.6468877892992871e-08 3.5705509672526625e-08  -3.8640709740417001e-08 -5.9200411325635996e-08 2.5896613544046535e-08  -3.8075155686560353e-08 -2.6642551721751747e-08 1.4907609238082576e-08  -2.7676034990814719e-08 1.1913135405901226e-08 3.6410133670133497e-10  -2.4069916225433428e-08 4.1582031008219761e-08 -1.0135883455943680e-08  -9.8191582436889578e-09 7.9837299337498572e-08 -2.5184546487930925e-08  -5.9778812674776282e-09 9.6553317012104924e-08 -3.1385013386126461e-08  7.6713636209984892e-09 1.2239154601399976e-07 -4.2181972046586201e-08  -1.9020675492254121e-08 6.2054529617835090e-08 -1.7783956354507672e-08  3.4642538582823935e-08 3.0965841338023625e-08 -1.5815170723004544e-08  4.0081670989888338e-08 4.7417417554447324e-08 -2.2178393840606672e-08  1.0540640439469884e-08 1.2890255059774941e-07 -4.4813034814495265e-08  2.1065220831230354e-08 1.4360777511923807e-07 -5.1391365241547367e-08  2.2582082427461344e-08 1.4541516710043072e-07 -5.2235013996786247e-08  2.9064997458884399e-08 1.5324975542296282e-07 -5.5877503281795159e-08  2.9438634950155591e-08 1.5324751133547303e-07 -5.5935512543433802e-08  2.7647041823549990e-08 1.5092215360444968e-07 -5.4875247788432372e-08  2.3292225791312741e-08 1.4600527413128852e-07 -5.2544257790215588e-08  3.1555843656492635e-08 1.5355179837915252e-07 -5.6370350389579450e-08  2.9733702570377400e-08 1.5258192279276828e-07 -5.5759084002622775e-08  3.1226068728505919e-08 1.5105942795556425e-07 -5.5484066015035421e-08  3.4043307704502393e-08 1.4689990006588665e-07 -5.4534552198637896e-08  2.3364755233435315e-08 1.4380322718619138e-07 -5.1818439847953790e-08  1.7970960124421262e-08 1.4587741108788561e-08 -7.7100621884121451e-09  4.0893061702572799e-08 8.8519347757730702e-08 -3.6066533529221594e-08  3.3686909428067314e-08 1.3872347597243802e-07 -5.1741113760513296e-08  3.7903746326018010e-08 1.2822652129268968e-07 -4.8889999220590957e-08  3.2152189901482759e-08 1.5256452647703426e-07 -5.6133606273864405e-08  5.6211323602470691e-09 1.0867050174757858e-07 -3.7265864774364145e-08  2.9644894194083691e-08 1.4764545312604864e-07 -5.4092434348231806e-08  -2.4903367011904852e-08 -1.1138869669119658e-08 7.6456463486081131e-09  3.6917907324370539e-08 1.3909933926472223e-07 -5.2375076084302617e-08  2.8327346260008338e-08 1.3763652715702941e-07 -5.0534335324297455e-08  2.0857231422509292e-08 1.2951922068528977e-07 -4.6641941496962422e-08  3.4603162154068796e-08 1.0238855064022240e-07 -3.9720621941310418e-08  3.9167173680059633e-08 8.7162875426225306e-08 -3.5340975585503300e-08  1.2527507062906089e-08 1.2798905571829020e-07 -4.4819672446232834e-08  3.4929402533654094e-08 2.9794644746036967e-09 -6.4907119295655461e-09  2.7406386399771554e-08 1.2561582352734498e-07 -4.6365082185257148e-08  3.3882788069652325e-08 1.4136265360178240e-07 -5.2655490426733473e-08  3.0684224043985439e-08 4.2739064392414360e-08 -1.9134224614250939e-08  3.4982823335234388e-08 2.8802072279982031e-08 -1.5144276722317327e-08  2.3904937000471537e-08 5.2393792303603944e-08 -2.1300382760316859e-08  -4.2965595050472168e-08 -5.9035077157651354e-08 2.6521419658222793e-08  4.2890473648542877e-08 9.4855258399966901e-08 -3.8501861606514112e-08  4.0235847640871671e-08 1.2612365330503966e-07 -4.8552739806814120e-08  -2.7717304491737401e-08 9.2427787588923622e-09 1.2646016443534173e-09  -1.0609897036227262e-08 6.2261820073327670e-08 -1.9176086672546519e-08  -7.8451646218591622e-09 4.5656948533641080e-08 -1.4051732655761865e-08  1.5467506578176595e-08 9.4961959475525564e-08 -3.4224877380953294e-08  3.4887184183881945e-08 7.5320315027665307e-08 -3.0703101168364960e-08  -2.8430541272640690e-08 -1.8800210707826534e-08 1.0765295873730710e-08  4.1414162153039320e-08 7.1206692585263137e-08 -3.0352372736268095e-08  -5.6859070734196402e-09 5.2295611033861028e-08 -1.6613872023992934e-08  6.7297739466130821e-09 6.3594215031702504e-08 -2.2349104570935051e-08  -1.2865436974969854e-08 7.3619504257898683e-08 -2.2623811049335901e-08  1.7822140203580505e-08 5.5225256314790142e-08 -2.1291711443514525e-08  2.0340298065099774e-08 -3.0968688584756200e-08 7.1691803507956807e-09  3.0505300196691219e-08 1.0152243185666346e-07 -3.8786198296198214e-08  3.8344753558073303e-08 1.2265970280585374e-07 -4.7095636881174830e-08  3.5018344725201148e-08 1.4339172855895001e-07 -5.3513390142315262e-08  3.5356414475441653e-08 1.4325542376433685e-07 -5.3520923549556907e-08  3.3166309074755128e-08 1.5040599151035220e-07 -5.5570435998269565e-08  1.4473403812497001e-08 1.1742295294947556e-07 -4.1588265581062679e-08  2.1205877542700847e-08 1.4010160618075905e-07 -5.0239653777915235e-08  2.4852272257147894e-08 -3.1780010696073929e-08 6.7312220925876094e-09  -1.4200436393296239e-08 5.1203777122464306e-08 -1.4909288461928343e-08  -3.8814211288597059e-08 -3.7222976709047264e-08 1.8566063388110539e-08  -3.0708723736789189e-08 -1.5446625863522218e-07 5.6543279627504194e-08  -5.6761209584726579e-10 -3.6258943594286117e-08 1.2228415686899782e-08  1.2617755480392010e-08 -7.8980327273885660e-08 2.4457515546052055e-08  7.7561210166400969e-09 1.0762876807364071e-07 -3.7252863871497683e-08  -3.5538215921023111e-08 -1.4343719429968833e-07 5.3610369824558103e-08  -4.2301393321780457e-08 -8.9870289350131841e-08 3.6740298934752148e-08  -4.2357321644705032e-08 -1.0753280349323910e-07 4.2662336325270290e-08  4.1283653654366356e-08 1.1325670249810014e-07 -4.4409791553921029e-08  -1.5583489019161068e-09 1.0634403632115879e-07 -3.5357896302176401e-08  1.2492216838551854e-08 1.3103583553673436e-07 -4.5834155392068514e-08  1.3590335313267602e-08 -2.5912857692577190e-08 6.5380774674936121e-09  1.5680487322953025e-08 6.1368306068034092e-08 -2.3011536395669325e-08  2.9029232677259969e-08 1.1395426219685391e-07 -4.2716121281275143e-08  -3.4028587325453521e-08 3.2103419538356366e-09 4.2767557916622253e-09  2.1082559412637159e-08 -5.4686536143200564e-08 1.4992957496109378e-08  -1.5653130751024535e-08 -1.3309633223151843e-07 4.7021095112989565e-08  -3.5457478338504255e-08 -1.4344924292984183e-07 5.3601706295873358e-08  -2.0028059109496483e-08 -1.2238637900899419e-07 4.4123533135168888e-08  4.1253342410206544e-08 1.2475912193524412e-07 -4.8255925251276425e-08  2.5436236903154028e-08 6.5700222784060762e-09 -6.1998421352326905e-09  -3.5893648724288011e-08 -8.7895869316872150e-08 3.5071560030206151e-08  3.2364021208608295e-08 1.5094895388769759e-07 -5.5626041847752251e-08  5.1100930572100927e-10 -9.2322179323638132e-08 3.0828223088845880e-08  -2.2517829282251302e-08 -3.4205991536900220e-08 1.4993134834970434e-08  -2.8525852052139486e-08 2.2315499552320296e-08 -2.9848637186672536e-09  1.9059785491883673e-08 1.4017650966579560e-07 -4.9927222939665919e-08  -2.7185578793857493e-08 -1.5191744401314277e-07 5.5135888999062691e-08  -1.1732912503646737e-09 2.5762828106370598e-08 -8.4406307345895837e-09  -2.5276912345582964e-08 -1.4896820692785765e-07 5.3848343689434659e-08  3.1332646372246151e-08 1.5386989343328077e-07 -5.6441744192298219e-08  4.1764809149734083e-08 5.9658812063058967e-08 -2.6541397097117330e-08  3.6453462493376016e-08 1.7717754465455184e-08 -1.1664634417236265e-08  -3.8487280885373711e-08 -1.3239993622405131e-07 5.0378989129912292e-08  7.5264845303520538e-09 9.1578410794500896e-08 -3.1843242837936078e-08  -2.6717982800915731e-08 -4.7443853768550018e-08 2.0085587532210004e-08  1.9265779949143809e-08 9.9913040682795392e-08 -3.6479792426587596e-08  2.7221992120109232e-09 1.1204466850758326e-07 -3.7939599419077434e-08  -2.7453178691164950e-08 -1.5224058505596270e-07 5.5286157974751186e-08  2.5770160789470266e-08 -3.6528672367102085e-08 8.1766759855242337e-09  2.7211056030198977e-08 1.4640683836639870e-07 -5.3294997346735820e-08  2.1181192018795173e-08 1.2227453773884957e-07 -4.4267438610481992e-08  1.0065819103329384e-09 1.0194785600169626e-07 -3.4289473948509187e-08  4.2845147558872227e-08 9.7502816922651354e-08 -3.9381110756633107e-08  4.2924117408172630e-10 1.2969291362642111e-09 -5.0170468276364610e-10  2.6219880927423088e-08 6.2221857855581095e-08 -2.4954788147400961e-08  -2.9770321025116556e-08 -1.1552316788657025e-07 4.3357924157786137e-08  6.5454802651459087e-09 8.1727989027068568e-08 -2.8391136468289331e-08  -1.7479977742418113e-08 -1.1280805409531500e-07 4.0516073891604321e-08  1.4931491153951773e-08 7.4648685738168452e-08 -2.7339889398648823e-08  2.6923250112554568e-08 1.2929988734119531e-07 -4.7522490688492531e-08  -1.4654182627739231e-08 4.9069464616237496e-09 6.6180909333797744e-10  -1.8285812273910664e-08 -1.0765980583588135e-07 3.8919219898569700e-08  1.8551724894314979e-08 7.6265675192495478e-08 -2.8450582612597356e-08  -2.1388565719655558e-08 -4.8781129314349455e-08 1.9695157317789675e-08  1.2259673204160878e-08 7.7015225757425908e-12 -1.9306110200474581e-09  5.1746389080915154e-09 -5.8981855439365349e-08 1.8932768279152629e-08  -1.6378659261044829e-08 -5.0753842964482431e-08 1.9567713969348186e-08  1.3631880917757165e-08 -6.7157715002525766e-09 1.0454186556148757e-10  -1.0623637078883679e-08 -5.7930746147727512e-08 2.1065402238534837e-08  1.3274430007449546e-08 1.1192253748105149e-07 -3.9558220700660042e-08  3.0447266748481319e-08 1.1324949638162713e-07 -4.2703181265840672e-08  -2.8362328143716723e-08 -1.2672494252837322e-07 4.6886742035512967e-08  1.8520753168238425e-09 4.2736297079890584e-08 -1.4598974722590012e-08  -1.7825353656361714e-08 1.2874083642508991e-08 -1.5067945403928625e-09  -3.1154599575987934e-08 -8.8856825953286560e-08 3.4647986764889964e-08  -3.3250748892698409e-08 -7.5287427983471431e-08 3.0434734884831087e-08  2.4775068820717814e-08 1.3261473032676628e-07 -4.8294432214159847e-08  -2.7719786972876563e-08 -1.4180091934248090e-07 5.1832985661625221e-08  7.8144648260269418e-10 6.1577301454000491e-08 -2.0738390033841599e-08  3.3086611019049853e-08 1.2425718621790969e-07 -4.6803530864413503e-08  -3.1038828265856639e-08 -1.3390664313117704e-07 4.9712030187017170e-08  -1.5348085918385451e-08 -1.2307211589637598e-07 4.3617109568636171e-08  2.6336413532458706e-08 1.3708300702352095e-07 -5.0035915557546873e-08  -6.9619539601995670e-09 -5.4528266642371148e-08 1.9350425349007324e-08  2.4030192978653072e-08 1.2552193869183513e-08 -7.9814930581884491e-09  2.5019305616153976e-08 8.7753547728260231e-09 -6.8725972673526912e-09  -2.5027909724837626e-09 -9.0154895218578591e-08 3.0576605999653547e-08  1.8777871523160847e-08 1.3250581470721380e-07 -4.7314811672599905e-08  -2.2327566458964027e-09 -8.4611767590096758e-08 2.8678352306813290e-08  -4.5928931547127871e-09 7.3900562671402102e-08 -2.4018898537690753e-08  2.3539432160724444e-08 7.5298632938247060e-08 -2.8911223996499069e-08  -3.4027457590180841e-08 -1.1428759606403545e-07 4.3613770293910667e-08  -9.2017266795981684e-09 1.5194008276578312e-09 9.3843994600294282e-10  -1.6992491279300702e-08 -5.3851672555229249e-08 2.0701372903336009e-08  </DataArray> 
</PointData> 
</Piece>
</UnstructuredGrid>
</VTKFile>