<?xml version="1.0"?>
<VTKFile type="UnstructuredGrid"  version="0.1"  >
<UnstructuredGrid>
<Piece  NumberOfPoints="201" NumberOfCells="657">
<Points>
<DataArray  type="Float64"  NumberOfComponents="3"  format="ascii">-100.6169732800626 -120.9410219949957 125.4304502674756  63.8076690147813 128.1471491174568 -121.0519898774645  3327.701650139748 -233.8991767856075 -497.2728638550219  5523.775262226754 -473.8302743563247 -769.7845179527677  6644.392865276783 -594.3944640595171 -898.2493337338871  7192.456236898772 -641.7640158693544 -843.9100545698649  7364.72442276265 -660.7944082094615 -691.1986275540372  7201.151548465882 -671.7868106183469 -545.7073100439903  6643.088831275462 -674.2933171289478 -462.3045774824857  5472.752057289146 -638.1065881630242 -406.6998601795599  3213.549396105348 -446.2104030544332 -222.4235904533814  4125.547360574809 -2201.766178231793 -75.62662881713521  3684.300490599382 1028.047055258261 -690.0116949496426  7226.309492711638 -1970.867825224579 -464.9337893517901  6003.304705479632 -2239.169548788882 11.91539638172024  6598.613665911307 756.3823970931062 -809.7278731376337  6575.270024541656 787.9720335970142 -1174.4375739859  4056.537755039276 1334.517014013346 -1077.600944532706  1762.916736611644 -2108.741319441592 473.4812390865807  6055.304636666701 -2026.57089156293 -444.5435001463985  4563.889480858048 -3388.33569663336 131.4082679261334  5943.785455365391 -3227.16868260551 -122.9130007879226  4341.834294265305 -4239.6607437005 344.6096924716275  5538.159088708179 -3958.932721336797 163.2279223398808  3778.558819698694 -4728.112733062757 589.4710071561472  4981.793963895232 -4354.358310333594 450.0584562199121  2960.002547989427 -4926.379252951099 864.5402795757465  4053.920383517865 -4523.739064051793 754.5079053675834  1858.859378687372 -4841.279117976464 1120.694970730056  2943.992780309267 -4348.215766447038 950.947686663623  432.4353347791301 -4398.532091325894 1289.875244707369  5750.367946155528 -3756.173513066689 330.2539779672201  5714.57942447146 890.5889045038538 -801.1317687307375  5245.237079747838 2190.645131917195 -1043.657557302372  6038.200699096001 1902.998358675866 -1068.577226188515  1445.207046731707 -3764.163300819032 1008.124601037942  3991.028032220489 -3484.946821050853 595.5696052146925  3859.052393246039 2415.981801444541 -1013.580072466706  3231.813342407961 3489.111703239359 -1155.123472835438  7231.795935587132 -1950.784865468324 -317.0196805675421  6530.286878739224 -3247.460227235313 -10.23370295509062  6920.212661902685 -2004.934844920387 -535.079682370976  1391.755945570357 1791.333479343733 -816.4210812682184  5670.94476002413 958.7340026843594 -1190.520649079552  5193.396409357498 2222.103346373486 -1402.586466412387  2232.253043353439 -4772.144016822785 777.5547246594341  -572.4725678829475 -4643.334136269499 1370.615229359267  2424.63846711961 -3458.250735617665 504.6425758975014  5982.105076021545 1955.047745996055 -1281.864894517839  4331.229949967563 3222.695545360239 -1432.650272152296  3167.075781510026 3458.071303095292 -1483.442371844317  2153.862405079342 4225.583537432814 -1433.354471276252  715.9594324656694 4318.624372463651 -1387.305193474876  -269.7753420408548 4805.817055852785 -1261.160129049187  -1846.059267317911 4655.732903896244 -1128.38998319743  -2586.799404915066 4922.169262376042 -966.7283810928168  -4074.881971364996 4496.118710518802 -762.2849655092964  -1026.93911688744 4986.045701895416 -1070.500657029729  -2152.60362505273 -3899.378168133869 1470.35542861516  -2888.022250522491 -3995.218774200757 1449.431750060544  -4544.790865666791 4561.281473288929 -577.5295111242322  -5751.847196962055 3832.992928383113 -345.7641753362722  -5987.962408110674 3783.190701796584 -163.5115048095259  -6848.502623969883 2770.190616614337 74.28633245321745  -6913.685505724437 2655.330750943297 267.5365099024465  -6421.105424236469 2752.854896353747 -85.79690323152781  -5935.689621371814 3603.410267540746 0.1908495668378332  -7161.314171657957 1575.771737791031 327.2504192093849  -6697.042056875579 2343.126756191625 430.1671035815064  -6609.302965579689 1296.332113019552 297.7145210018668  -6880.032262717218 -15.90109889610575 656.5325593733703  -5521.384677538304 3247.971599731856 59.44442928734163  -1137.93611150039 -2618.132897846228 1024.704446183138  -4378.242290079334 -2999.006395027135 1467.063198837543  -6039.102377883102 -347.2875306395415 689.6327361488774  -5936.908348570832 -1572.659218826284 965.6450378564458  -7229.639311568929 1223.135769473685 685.8046436295621  -3324.994752975524 4057.060677888834 -837.0150951031522  -6080.642647045454 1756.10499821289 520.0806179334214  1380.692136736253 3644.983170132557 -1023.435121720441  -6719.670177825595 -1067.545746732836 958.7379696902497  -5430.928461132155 1033.786686736522 292.3970083207756  -4571.404978201712 2713.429949930637 15.13192290465208  -4587.057609393845 -2018.846480642496 982.8679331599367  -4287.605253516121 -2997.793831340769 1140.751838696548  -4427.698327335253 4269.659913708141 -342.0000531763948  -1339.011141561966 -4614.593781877522 1318.168370770676  -4786.190078388274 783.4332766890238 562.4519638829109  -6074.567536194548 6.549026317255599 986.4787661779748  -2468.532062496985 -3408.857635593805 1083.595356290861  -2159.219496091741 -4110.186383071645 1175.40671156735  -2492.739212073829 -2294.470863468375 870.400246671131  3338.720467308294 3883.725976778789 -1352.825967674554  -4756.538922157039 -3059.922330599608 1383.989188798015  -6011.743094320453 -1863.056582921566 1316.276208121277  845.9432573607903 4397.796429467843 -1086.637935322289  -1178.274760206167 4348.004510010434 -839.0007451630919  -748.3524653763495 3548.425616136959 -753.11724024691  -3087.864889810593 1860.311852823866 0.2204924265928637  -3612.86348401713 -2740.994920697983 1401.119522423093  1631.954258187359 3604.290395607136 -1373.507481668665  -3805.471688874332 -3601.402921206269 1250.956997820705  -1081.858991971289 3314.3000022123 -928.8567862164261  -1875.85365081145 1788.941777571737 -360.0526276824683  -1524.007823971588 4852.205840543627 -894.1600640319077  -2199.934429684326 -966.8478280275881 686.4605551095608  -1.62602316730245 -4384.464336229359 996.9753661086671  -4225.961456946181 -1186.862696196825 1059.860139073984  -5578.053606314102 -1638.263503123834 1330.096470060123  -6713.298150455965 -387.6804206173862 1104.769252437283  -6961.915131978858 -612.1360446068859 1024.278595168836  -7298.498161766347 500.1869190629012 674.3701667843088  -3897.86596594703 3053.994113490806 -484.300889684323  -5257.955900134209 3193.494420297276 -359.6387385505772  -63.11388435635765 -4744.57770487865 1076.408626180317  -810.0876131908641 4198.748087144206 -1202.14206047415  2534.933168925254 4119.410644787408 -1228.220498769198  6876.329574931381 -1986.77055414193 -170.583857254682  834.7144509568325 -1904.876106774008 353.6811221305202  1801.461437073579 -4993.265971495603 929.1937926638683  -3234.874076017948 3905.749332981933 -459.6901111523547  6974.294423171585 615.7204193664322 -1028.559070175764  4467.366174098845 3159.301594106324 -1207.319217646697  5272.06793663083 2708.224211589208 -1268.080191749111  -5481.808292784654 -2446.609418988219 1147.899201886517  -3102.359783528681 4922.101536080781 -766.216745361818  -4696.776858820267 4466.040025023452 -409.1467901871733  21.94287029448692 -3593.276569697106 866.9304193424648  -2332.041444440411 -417.1076270852074 361.8277379518219  -4585.045488442232 -566.760712501232 652.2260172439854  1152.37255999223 4648.483013013657 -1292.094537325572  795.3592015636007 -4972.943340841552 1161.636000593045  4851.891118910985 -3835.474947386767 562.1938397323546  6980.569101586392 624.4170118614873 -885.1366374509581  4361.186982600007 -2178.018784243031 167.5741807478257  -6034.983640025267 -2064.361205229884 1213.798664696749  -1163.014146688542 -3692.159039129896 1335.339846053256  3994.081708904869 2392.017671256187 -1359.977086372181  -6842.570373556368 1030.777178346419 792.9828725504361  2484.731181922942 -4301.405860363681 650.8126710404375  1937.219194856444 2700.61198161371 -908.1100965940908  461.6449793022886 4735.998502873585 -1137.22769370126  -5318.499800468579 3795.443562965445 -472.3624580838847  6596.348307330939 -2988.42456012384 -205.1256910396883  -482.460841379968 1712.473580213707 -349.909244896034  6211.384725872021 -3027.712953046591 165.9898333408096  -7260.413366273892 1843.677964191882 398.4617618824369  -3395.034468275312 -3881.03577602482 1346.706514804797  -1846.547999133168 -4434.69074256031 1247.391086219493  6434.92593045986 1565.236026993186 -1114.962004576012  -2636.239974294183 3216.259136269387 -411.0200471861116  2375.218650742772 2573.564662979727 -1199.563674891881  -3516.223912848828 979.7984635494962 105.3684089342249  -3423.553592813469 4729.398802493891 -604.6922049092302  6668.524690721209 -2855.610451192692 8.458583670597312  81.81123615867067 -4901.812869519222 1145.408340886897  -5794.355630195723 2131.935514380463 4.507453436829986  -4378.52952262031 1934.897597942627 -89.87833614715848  -2889.593278825886 4505.812855971667 -618.6092799146604  -4884.052265822806 -3019.692759963717 1279.465064119423  -11.95968121032788 3.645129866814787 1.8934846144832  -2834.375528069451 -2167.183031044965 1010.179334523723  4606.031923426292 495.9059503615802 -773.7589006041999  -2318.146566868102 2840.092526733863 -463.1720317556217  3808.304458607983 -2261.930031192463 153.0244909542228  -2558.379291611044 626.8077512929726 136.2134222000351  -4907.774159384453 979.6305395622455 393.95511024449  570.0177084745299 2916.237455167323 -942.3394424882256  3651.287407889954 -1822.659768145163 -16.58708617157224  -2790.907143488368 -73.81260190880475 456.5691609170511  2249.231708354744 1975.902358822246 -840.9665357005501  -597.1862075026147 -2472.472686167151 752.6823925663024  1257.809096093459 -3595.44212829624 843.0692796102081  2037.75488264212 897.5859806909179 -594.2562842111977  -449
[...]
<PointData  Vectors="Coriolis"> 
<DataArray  type="Float64"  Name="Coriolis"  NumberOfComponents="3" format="ascii">-2.1857990126578784e-08 3.6838008523538284e-08 -8.8954911320190669e-09  2.5469255944122769e-08 -1.3689982263257793e-08 5.7782192014587480e-10  -1.3841453813404699e-07 -1.0219769698748837e-06 3.6391610290594455e-07  -2.3571065698478100e-07 -1.5560633370529964e-06 5.5802453325503214e-07  -2.7865732267909194e-07 -1.6584054333141442e-06 5.9904175408445104e-07  -2.9612338355996461e-07 -1.6645970596902964e-06 6.0386147331042429e-07  -3.0371473990019972e-07 -1.6661720091281892e-06 6.0558261541905357e-07  -3.0268346082217524e-07 -1.6752032403468326e-06 6.0844400036269857e-07  -2.9357462677591881e-07 -1.6710118765280760e-06 6.0560825960045135e-07  -2.6542532189031637e-07 -1.5464339853858839e-06 5.5947383131462779e-07  -1.7521104646952288e-07 -9.9206453798523209e-07 3.5968855345091958e-07  -4.5108957478798659e-07 -1.2322933714864801e-06 4.8350125911929032e-07  5.6789078376001960e-08 -1.0704922163219700e-06 3.4945960855596327e-07  -3.9895908770214425e-07 -1.7125863373007431e-06 6.3610041086309813e-07  -4.4563894078418875e-07 -1.6070180686547147e-06 6.0809832319357022e-07  -1.6346459157027241e-07 -1.5570047599961481e-06 5.4697784614074534e-07  -1.6247844511890570e-07 -1.5516120279277141e-06 5.4501732319473396e-07  6.9706076234375962e-08 -1.1315007103692264e-06 3.6785326453925430e-07  -4.2416713965622021e-07 -5.8721783171671042e-07 2.6330211350713257e-07  -4.1983099120745940e-07 -1.6240764331312863e-06 6.0975058237159977e-07  -5.5366274927910812e-07 -1.2974092902767880e-06 5.2143274620490372e-07  -4.9821672505518436e-07 -1.5399926773199568e-06 5.9392756970264019e-07  -5.4844959677298208e-07 -1.1976665864935537e-06 4.8721998473503723e-07  -5.0585309828416114e-07 -1.4073021679731686e-06 5.5070499279292944e-07  -5.2970259168955582e-07 -1.0561078044307608e-06 4.3687917993972452e-07  -5.1294938001094861e-07 -1.2859482289278988e-06 5.1119285364641784e-07  -5.1825437405358612e-07 -8.7047358314285800e-07 3.7293019008397590e-07  -5.3217173895782341e-07 -1.1102296764639003e-06 4.5538698145425303e-07  -5.1252345687894674e-07 -6.1700044069558355e-07 2.8716851292041554e-07  -5.6294077256114538e-07 -8.8612905848405046e-07 3.8519915589802845e-07  -4.8837437089612586e-07 -2.5261370425704753e-07 1.6137746331580299e-07  -5.0014005241335791e-07 -1.4508866108318091e-06 5.6439818054393778e-07  -9.2515048213620975e-08 -1.4880509486971400e-06 5.1273479848855029e-07  2.3081334415777587e-08 -1.2518379447081198e-06 4.1547352362940839e-07  -6.7675857189775628e-08 -1.3656089527463798e-06 4.6783601673723777e-07  -5.5850803711293836e-07 -5.0974635296621458e-07 2.5849268611317825e-07  -5.7212295294024790e-07 -1.1695601574870787e-06 4.8153323916156301e-07  1.7263646475538914e-07 -9.8549933513900017e-07 3.0278591820260821e-07  2.3995287655475494e-07 -7.2128170502799645e-07 2.0374177000422750e-07  -4.0108525398894012e-07 -1.7098213389809747e-06 6.3550908988527070e-07  -4.6926229439167615e-07 -1.5916485945401443e-06 6.0666792526748926e-07  -4.0495500490120396e-07 -1.7144947651708620e-06 6.3768228967542224e-07  2.8235922753124111e-07 -3.7813832208259262e-07 8.2191541820104766e-08  -8.1243383046345310e-08 -1.4682329181761597e-06 5.0432725803033286e-07  2.1825937970442388e-08 -1.2242709514674983e-06 4.0644178794131010e-07  -5.4100900964391715e-07 -7.1834985822246768e-07 3.2557914959412846e-07  -4.0417866593518836e-07 -8.7375043470330688e-09 6.6488889636857393e-08  -5.6822502206653893e-07 -7.9043821846123329e-07 3.5399380675087083e-07  -6.2800360051587260e-08 -1.3434699829210091e-06 4.5965734912549819e-07  1.1182582734150954e-07 -9.5162061111158488e-07 3.0100710348242390e-07  2.3378625164108333e-07 -7.1051893410938434e-07 2.0110829853213249e-07  2.9141589008300851e-07 -3.9554646480784730e-07 8.6595315238746592e-08  4.0219045738205071e-07 -4.1213370880279962e-08 -4.9453133604269982e-08  4.2050961693989193e-07 2.4309102183794914e-07 -1.4751652559521305e-07  5.1423110094555276e-07 6.3779229224355389e-07 -2.9439798182529588e-07  5.0668993981919159e-07 8.1129553530854855e-07 -3.5129924747863846e-07  5.4417747017890249e-07 1.1439402300103018e-06 -4.6856105029813692e-07  4.5032607066473740e-07 4.4332113137859313e-07 -2.1924078332010535e-07  -3.1321205105647662e-07 4.3921256886481489e-07 -9.7786511454015748e-08  -2.3363939292117137e-07 5.8100875155760275e-07 -1.5777261705215333e-07  5.3393256346917785e-07 1.2265582544910898e-06 -4.9460960126016235e-07  5.3174293892514022e-07 1.4588150088864100e-06 -5.7202259972469356e-07  5.2003165208011602e-07 1.4880873438282724e-06 -5.7998090909893879e-07  4.6075990173883980e-07 1.6398054983350233e-06 -6.2145325939191332e-07  4.5051277457990298e-07 1.6375969886433402e-06 -6.1910234426329475e-07  4.8064863883688882e-07 1.6083527166735724e-06 -6.1405099399076933e-07  5.2308768338440866e-07 1.5094185033664766e-06 -5.8760298897139806e-07  3.7381446882731152e-07 1.6721757518511716e-06 -6.1861693169132690e-07  4.3834617580316119e-07 1.6450811403188424e-06 -6.1969457190647557e-07  3.5138137936893175e-07 1.6681858705853122e-06 -6.1375318991438941e-07  2.1646796347457882e-07 1.6313873316633215e-06 -5.8021606435097986e-07  5.4007496675138626e-07 1.5004476878180747e-06 -5.8727117130899508e-07  -3.7841935871452552e-07 2.8500441530279871e-07 -3.5904180610604644e-08  -1.1615160602211385e-07 1.0045336176682564e-06 -3.1804157592448098e-07  1.4436478658714961e-07 1.5723555985611350e-06 -5.4911340651434084e-07  4.2684931321197484e-08 1.4472560118684556e-06 -4.9124044684568947e-07  3.3406342041181745e-07 1.6623490648193949e-06 -6.0907555268582221e-07  5.6899940679802419e-07 1.0001984633903933e-06 -4.2434132637519202e-07  3.9800347123232190e-07 1.6211638758233943e-06 -6.0534275404127573e-07  4.0467056937181012e-07 -2.6166138461241029e-07 2.3960726928195771e-08  1.3027528668183669e-07 1.5453151245541441e-06 -5.3784471041216765e-07  3.0362341372250757e-07 1.5329691712911420e-06 -5.6097320962734608e-07  5.3095989516754881e-07 1.3424337941576475e-06 -5.3293612954762225e-07  -9.8491812108698652e-08 1.1860925290387707e-06 -3.8160306198117180e-07  -1.3642197558252628e-07 9.9639027039301542e-07 -3.1212741604113973e-07  5.6344208680047479e-07 1.2333535514444830e-06 -5.0152545362686641e-07  -3.4317295470407347e-07 1.7545211468357654e-07 -4.7701814604886599e-09  2.5103423335496233e-07 1.4059208016786389e-06 -5.1016812149157693e-07  1.8296921416871852e-07 1.6018489685941602e-06 -5.6505867920722188e-07  -3.1301564255612896e-07 5.6612240294125204e-07 -1.4030560533801470e-07  -3.1431639740122948e-07 4.1590702725708433e-07 -8.9810361383988934e-08  -2.7295582807868580e-07 6.7477146055571555e-07 -1.8298033262915860e-07  1.9828686958639131e-07 -6.9433124619184207e-07 2.0127166866429850e-07  -7.4180557609132007e-08 1.0579034638798223e-06 -3.4250992153845561e-07  4.5901052750628844e-08 1.4080226815329031e-06 -4.7861128828451766e-07  4.0599610783108609e-07 -6.5400161969489247e-08 -4.1954126289226335e-08  5.2336604604265797e-07 4.7009626914826187e-07 -2.3969156658902455e-07  5.1710274679804014e-07 3.2590045351962499e-07 -1.9043117342773553e-07  4.0855477352095220e-07 9.7260143484720122e-07 -3.8986958059106679e-07  -2.0124123481853481e-07 8.9746401447664682e-07 -2.6881396567857283e-07  3.7991637032390438e-07 -3.3116848212090010e-07 5.1124041756249893e-08  -1.6465639532552524e-07 8.1446983897497194e-07 -2.4678186494042651e-07  5.2301050521147544e-07 4.0868445935909597e-07 -2.1907556216808722e-07  3.7948881454165576e-07 6.1680016537165099e-07 -2.6617960557798502e-07  4.9649274851027603e-07 5.6856823357584033e-07 -2.6843278147785380e-07  -1.3064557051375666e-07 6.6562356806552517e-07 -2.0229830336048186e-07  -4.8762262708128755e-07 -1.4419170895523312e-07 1.2496058652994263e-07  -5.4562818400442051e-08 1.1803991750599522e-06 -3.8660552857955071e-07  1.0678611041344822e-08 1.3921596546903962e-06 -4.6776119703740540e-07  1.7378302264039125e-07 1.5919683754165593e-06 -5.6030607284386236e-07  1.7049327061257758e-07 1.5799708161514331e-06 -5.5577203719682847e-07  2.7428380241671911e-07 1.6457422271405646e-06 -5.9411442603540352e-07  5.5334921311073894e-07 1.1714254988975062e-06 -4.7920526238154433e-07  5.4563478784820312e-07 1.4483236818426640e-06 -5.7069492195991755e-07  -4.4688986778333866e-07 -1.4372840184096314e-07 1.1839958809692396e-07  4.9913050056999527e-07 3.5814440735257831e-07 -1.9839971504721624e-07  2.7177563388969657e-07 -4.9557543751331384e-07 1.2317281307223613e-07  -4.0616277221828105e-07 -1.7015284181489364e-06 6.3353122102672147e-07  -3.6980100269428800e-07 -2.9717023124942129e-07 1.5764697783316546e-07  -5.0244150781036453e-07 -6.0932559818448773e-07 2.8301349848806687e-07  5.8686157184918842e-07 1.0020117477091341e-06 -4.2775751213180832e-07  -1.9562866841572046e-07 -1.5725200500219003e-06 5.5723054088729726e-07  1.0533087635007728e-07 -9.8879353066741241e-07 3.1447367988904053e-07  1.7519379035112938e-08 -1.1592208105935471e-06 3.8534089574442422e-07  -1.5153003735158140e-08 1.2656181699935647e-06 -4.2133387069734919e-07  5.1758089390073840e-07 9.2716863389425559e-07 -3.9180523818440680e-07  5.3994011411735466e-07 1.2607047474917785e-06 -5.0698630722329341e-07  -4.9588519834246291e-07 -1.0764159809401673e-07 1.1402338048516274e-07  -1.9943815344522459e-08 7.1046914052840391e-07 -2.3472182254248997e-07  4.2914561524417116e-08 1.3091468800706676e-06 -4.4503893609877566e-07  3.4676177046958128e-07 -1.2164188776996191e-07 -1.3809370278809360e-08  -4.5822553925713777e-07 -3.6123269413614492e-07 1.9300067491116033e-07  -5.4300271058797683e-07 -1.3063038732063316e-06 5.2273410384744252e-07  -1.9496252908305712e-07 -1.5738648486878965e-06 5.5757600546726780e-07  -4.5078423397029066e-07 -1.2783435109987456e-06 4.9887038806293259e-07  4.5166870676286896e-08 1.3888073966606892e-06 -4.7206273160913613e-07  -4.1110235176094531e-07 2.1504425077111551e-07 -7.3422516871638192e-09  1.5223815179035941e-07 -1.0120609551103480e-06 3.1488646179291110e-07  3.1171313899497776e-07 1.6640434171491722e-06 -6.0612786116494438e-07  -5.7894052689720951e-07 -7.9251070264702973e-07 3.5637284182589407e-07  3.4603187336797737e-07 -4.8447777614189807e-07 1.0777942252562059e-07  3.9367334278954874e-07 5.8297253946826558e-08 -8.1428889861138748e-08  5.5187420688043632e-07 1.4169643560044821e-06 -5.6117736784334336e-07  -4.6090593581109544e-07 -1.6241092609057698e-06 6.1622127460981873e-07  3.2664593308166429e-07 1.9480157484901131e-07 -1.1658809002253434e-07  -4.8350915825449664e-07 -1.5768722140281582e-06 6.0396148421727274e-07  3.9060334707120856e-07 1.6629714461531166e-06 -6.1817574132112295e-07  -1.9064841792771567e-07 6.9464903785820869e-07 -2.0257933281068286e-07  -3.1519897486315892e-07 3.0871070947537961e-07 -5.3783254060084541e-08  -1.1703162715932832e-07 -1.4402031106724883e-06 5.0057142739861638e-07  5.5309327359653343e-07 8.5597125581831086e-07 -3.7355393131723885e-07  2.9868313406604005e-07 -6.1670278509695626e-07 1.5949345585425231e-07  2.7859028322018497e-07 1.0835503998751174e-06 -4.0657521306724026e-07  5.4161231663235131e-07 1.0078927830257719e-06 -4.2261024690624144e-07  -4.5611866134860885e-07 -1.6337470946935096e-06 6.1869505307888042e-07  -4.3226971107118084e-07 -1.8655242403583412e-07 1.3043740647217286e-07  4.6141721894766944e-07 1.5909626759423103e-06 -6.0520452078117733e-07  4.3780011380476002e-07 1.2959970120585540e-06 -5.0273864865400164e-07  5.5890717844218609e-07 8.9910628035720927e-07 -3.8890945820704381e-07  -6.4700168964226140e-08 1.0861620491780151e-06 -3.5346157215020094e-07  1.3202397241757183e-09 8.5122952212220384e-09 -3.0574646111308663e-09  -2.4127355806213233e-07 7.7776998346959819e-07 -2.2244580978280088e-07  -6.2632448023183065e-08 -1.3275723204530641e-06 4.5430855603548300e-07  5.1869618503481299e-07 7.6621906875676221e-07 -3.3809625214016304e-07  -4.6664293319185333e-07 -1.1580882322630644e-06 4.6110410233116608e-07  1.9191427298208408e-07 8.0858258295203052e-07 -3.0088739344471121e-07  2.9232517179666686e-07 1.4378963514616533e-06 -5.2736690180079736e-07  4.3877263497365710e-07 -8.7323310324061591e-08 -3.9769105679559685e-08  -4.0353139230807873e-07 -1.1259358549379661e-06 4.4041447789312700e-07  5.4985123008186569e-08 8.6306623263912739e-07 -2.9759366957286789e-07  2.5737050830694941e-07 -6.2606929015793015e-07 1.6912635369902443e-07  -3.8717821501144737e-07 1.2301971699182741e-07 1.9704228146662285e-08  -5.5105074626537178e-07 -4.6449322734397368e-07 2.4216958999909367e-07  1.1271412409227802e-07 -6.1086846764733118e-07 1.8678682752708306e-07  -4.2803437866259523e-07 6.5088422928196851e-08 4.5524369392556903e-08  -1.8087071128588446e-07 -6.2082779782720368e-07 2.3629209769955254e-07  5.5731068609197555e-07 1.1065372693051863e-06 -4.5810430617378713e-07  9.9830141824209681e-09 1.3095960859754582e-06 -4.4001030556370723e-07  -2.1355777465524003e-07 -1.4290853012982527e-06 5.1202959416707579e-07  3.6965487710128051e-07 3.7618333641628165e-07 -1.8407683335872816e-07  4.6065806960318887e-07 -1.9252680539372936e-08 -6.6000345001713656e-08  1.3515562962915728e-07 -1.0364701168866495e-06 3.2574492092132087e-07  2.1103857790113174e-07 -8.8937883604956074e-07 2.6456633359542131e-07  4.3531357339333107e-07 1.4291241249678739e-06 -5.4691729109225856e-07  -3.8877004612874309e-07 -1.5547045899186372e-06 5.8164071120422467e-07  4.9588119305292564e-07 5.3963501939906726e-07 -2.5865003952085897e-07  5.2371239273163394e-08 1.4236260472461143e-06 -4.8485268858947777e-07  -2.0753348500012874e-07 -1.5224358721065020e-06 5.4233506011190999e-07  -5.5385250903978450e-07 -1.2156398035609238e-06 4.9408694253278438e-07  4.1093510702769717e-07 1.4974129251610864e-06 -5.6594582235543932e-07  -3.1503169210380101e-07 -5.2890461154440367e-07 2.2661608125626749e-07  -4.0593174677192931e-07 2.7580686988313185e-07 -2.8498160245702480e-08  -4.0957407178590685e-07 2.3749391671822370e-07 -1.5098533171021453e-08  -5.8316677309872354e-07 -8.0462568841620690e-07 3.6109346966067934e-07  5.5956978460307813e-07 1.3476050106183093e-06 -5.3916677317742060e-07  -5.7503479424004057e-07 -7.4714238151394731e-07 3.4056971952850581e-07  5.5142226355973938e-07 6.1000820146222628e-07 -2.9094504652329830e-07  -1.2602041072805909e-07 8.9679447138633500e-07 -2.8041950467312143e-07  1.3814966793760675e-08 -1.3030254931450329e-06 4.3406791475153123e-07  3.4079827985944694e-07 -8.6429756043978495e-08 -2.4660201387630985e-08  1.1035487058702731e-07 -6.4537107569030136e-07 1.9870900347069806e-07  </DataArray> 
</PointData> 
</Piece>
</UnstructuredGrid>
</VTKFile>