<?xml version="1.0"?>
<VTKFile type="UnstructuredGrid"  version="0.1"  >
<UnstructuredGrid>
<Piece  NumberOfPoints="201" NumberOfCells="657">
<Points>
<DataArray  type="Float64"  NumberOfComponents="3"  format="ascii">-0.2922533832051738 2.130555852025589 2947.384378601422  -0.9142151710099392 11.79835407882707 -2948.009161559886  153.1375160050598 15.72786754316196 -2799.939859042036  278.8282523733274 17.66244043303955 -2375.335457837675  360.3155903833277 -4.427897326205729 -1719.483437870405  400.526146222934 -17.73089048755088 -902.573722137309  416.2210780887901 -20.84293115838299 -0.4348021888727693  400.3795037236562 -1.785448812688054 901.9442627178515  359.4078812646649 10.00362512090996 1713.043611621694  278.5883103283331 6.734756475702742 2368.349807537244  153.0722474212411 4.18198937334286 2796.620787321056  180.1840873767193 -3187.320722311747 -2629.982595518036  213.2198919230258 2490.460653962309 2659.956607767863  402.5912609776544 -3284.860954555811 -444.9809859589852  314.0876836752277 -3284.845741782181 2016.432747071366  419.9674904797256 3219.810923053979 1258.362355308489  420.7175912327582 3228.697703457233 -1283.459882381329  243.9955172890326 2891.593416648529 -2583.162522491577  59.66807605760693 -2787.586941212535 2866.607163406658  308.1837143193374 -3041.878745237324 -2040.757946814923  232.0115996002548 -5554.752666004836 -2257.09362532502  341.6746245867578 -5726.1554666311 -1548.24099136874  267.6447227294457 -7584.686668676334 -1619.750301341281  370.2358071327449 -7465.501522027724 -787.0282941776081  263.0473185113372 -8794.647074478444 -723.5094318923276  359.5238246189975 -8248.730987007953 175.4651615856165  198.2673476970889 -9202.501735328044 336.6701638635348  276.1860696714528 -8271.684048543917 1214.848504476235  76.52335979372913 -8863.20431865211 1347.2597277134  154.367733398059 -7461.189119665021 2059.178345133316  -58.30335783078677 -7842.042041787428 2109.418794650996  365.7794577459665 -7020.366008215963 952.4097006743085  349.7065543898356 3040.23525652405 2040.020352810443  419.3552576524017 5742.019398478989 1610.232622432471  477.5773306337119 5754.722004390649 721.2816903315337  29.23323961351094 -6020.063987833632 2590.773581111503  193.9863755797586 -5449.007546971279 2394.071694977367  304.4114085380065 5258.250849764349 2310.610066165169  345.5452785358104 7433.310561479791 1759.821980842987  402.2024482720311 -3196.611705375923 443.6605345793494  397.1558539675077 -6188.415375072144 54.68376131561339  375.291491747027 -3226.356974798467 -1250.619278141655  98.17306305325376 2798.8395448437 -2866.592642871071  349.4413934450351 2967.874319135547 -2069.269798008012  414.5182835149022 5698.032863876834 -1641.692739420516  103.2520030917659 -8652.903741473097 -1497.592611351322  -166.9013699477418 -8948.577718109846 1282.733495651086  82.45824497743449 -5494.025429195651 -2625.248071213015  474.2807877024757 5815.857648190296 -748.7566623113878  449.332151261113 7678.94941546151 -982.9570305029298  330.5812402341153 7247.97524957426 -1881.085119352332  312.1618322252103 8719.342230527984 -1128.38431751244  157.7721324634134 8108.394447585167 -1915.44612059837  91.30451338360309 9178.713312550719 -1056.275474449292  -65.70796228707036 8320.333007837133 -1786.609621978402  -149.6715703589157 9124.554556255176 -793.782938613959  -266.4562806166801 8120.735504344965 -1348.629412674032  13.08112885587621 9508.530838154109 70.69452834529676  -269.0824846906384 -7704.053826144537 1923.033310575942  -377.9457326754914 -8565.440118198921 992.9803604056468  -328.7177530410539 8530.402235494232 -372.633616633612  -377.2836506881409 7110.931551942493 -872.3885823642632  -401.9735563979837 7182.16966595412 76.54054994037755  -396.434042042092 5072.783677183081 -500.7827967737115  -398.3328502023581 4841.155453236703 465.2272949850359  -361.471827169709 4677.066480734042 -1425.585307428063  -371.9172176042486 6635.200940499071 1071.396777264588  -387.7939957997695 2190.232510350939 -865.4361963990916  -368.5977249760429 3948.892358030055 1342.152762900363  -350.5599998882279 1350.812994971471 -1728.307779903184  -405.6177177240685 -1562.981855827139 -1238.980254319622  -305.7135256569356 5483.429947523018 1920.173949009028  -105.5389887894229 -4226.479922774585 2795.794790258355  -411.5539355464247 -7010.257240518697 1499.91091865009  -349.9455629794234 -2006.566675800035 -1991.240889773604  -425.2168512563526 -4704.395689375254 -1479.884443743954  -396.6802467905456 1385.380390407332 738.5273397648219  -166.7435357636728 6730.028140239293 -2246.847310579676  -308.1886273018293 2437.728958056187 2069.498150979721  180.7961004741463 6716.851184115088 2387.359469792932  -459.056513446154 -4075.973819369918 -515.5998520457954  -273.0587759280738 787.9600969026733 -2380.777839949144  -209.9461264455814 4121.540881236505 2469.370742998252  -335.0607710320815 -4773.65301280586 -2193.283750626824  -402.6639100699755 -6966.679476165042 -1580.443786848679  -274.9701348774266 7622.347209920829 1570.290920833166  -257.0571518791493 -9337.225177123004 245.127781127614  -228.6770397448922 705.1972632552668 2576.885702894092  -333.5613192306033 -1071.533991398135 2057.386550785707  -255.3516829974357 -6696.219478607474 -2243.960328654302  -298.142678826218 -8354.811235630643 -1505.563394920015  -190.1994376417038 -4333.307748486371 -2674.062652740528  420.9119692543697 8697.021620382608 -105.0381797753689  -472.983042343437 -7624.017159945558 612.016811231593  -461.4218927165521 -5485.625638014845 981.1268492819675  180.628284468151 8438.206437962146 1698.748342752019  2.329118509529566 7646.015450795518 2179.636563651383  26.44350094232021 5902.21860700843 2646.757612031224  -120.3070085856791 2616.347622548752 2785.31681071327  -292.8507417678487 -5659.50763777223 2279.274660471095  191.0154239237631 6597.98055296288 -2398.973466153366  -432.3026872660504 -8256.247517459249 -783.0131081517986  -8.682645730687192 5094.353918310526 -2740.510786017278  -70.31718705955875 2256.109234645937 -2875.137202233739  -35.22663608374857 8980.076632639863 1283.420513623455  -119.2985639125018 -1630.462774706969 2855.707058600522  -101.4858478413021 -7983.288532834539 -2032.890040215809  -250.5951842178697 -2641.045095572065 2563.837613255994  -389.19597224492 -4429.224387261286 1823.571475789362  -409.4982836320215 -2300.980635564917 1310.332089090879  -445.7195453503373 -3049.286422012683 421.4267658736391  -417.3981011386845 -425.3880871696738 -253.5708413708063  -179.5300675326958 4488.105863031712 -2548.300967120655  -280.2181891640794 5105.637917951506 -2085.689908308058  -119.8747733737781 -9036.591912196271 -1242.521763282315  23.58944688172614 7255.187629681985 -2329.823944252699  346.9382712986604 8709.787793937418 967.7466266464019  376.9503273530559 -3080.870495900769 1307.062770327033  6.67116587140861 -2906.039869141759 -2890.809465719101  75.14256990760985 -9366.3151974386 -595.8838069088135  -148.2784750813958 6448.869589580191 2357.777259739721  446.3038394877973 3089.113549073851 -449.8883759501649  457.4023434688672 7655.432423621058 894.4425943388871  497.4579108894323 7219.357149170515 -37.7320032372124  -475.8794202784319 -6584.882111628509 -831.3914626599408  -205.501170009252 9173.069124259624 296.9017728252908  -333.9447134017585 8311.167178717051 659.3156550150967  -72.79850578530805 -6098.056458890097 -2599.545622871579  -126.6446122870974 -1171.024401945079 -2855.843134189577  -256.2620533501854 -1935.55761481831 -2527.725147948839  239.8740382263886 9362.828857391971 -200.6025412838772  -30.36507005226649 -9478.85729156249 430.6056155436434  282.5995204689095 -6653.675152013878 1802.614178444552  446.489190593029 3124.240216650962 399.6002275091747  205.2477702002141 -2851.497564095496 2586.136893896894  -488.3108687404433 -6127.061968084538 79.55069833763854  -154.1170560270461 -6599.963046320718 2438.17079981633  306.6561551803441 5095.961991596817 -2306.027944832849  -369.6213456941328 956.5880577395009 1487.717671289742  102.8659533478753 -7365.39003833181 -2178.248760610712  174.7424614783468 4924.177041209658 2665.402684249772  166.6474596546749 9265.208572887772 807.303599128336  -325.4824621745664 6680.396576816333 -1565.019230057254  387.40035889867 -5538.354791093585 -827.0099177922256  10.16542271622034 2700.227399141661 2896.781187430048  357.1826857733446 -5280.172708102361 1429.109333643071  -404.0740457660313 2941.235310206937 -68.45679557873117  -427.5018605326285 -8687.182667853556 33.92353185904517  -301.4095177115603 -9122.961942900512 -630.2214224098511  480.2880053104519 5206.466787182991 -22.46685645036514  -94.07654784541434 5039.574798609297 2670.439521307321  188.5531116395398 4597.721233307443 -2666.861278142598  -164.4610617020449 799.310931166576 -2765.958161135798  -216.9676010464036 8635.411448623388 1173.346950764964  389.375650586144 -5196.561517379702 859.5757582520679  -108.9165870380583 -9481.144760945048 -390.9292889481084  -294.3551832746173 2896.034651660634 -2166.921395341396  -204.7917046855913 2369.432594467309 -2603.016470549881  -144.9570465857549 7942.033503195566 1866.649736140876  -488.6150039145523 -7626.900832633832 -195.6995841410815  -1.546876594181509 -12.45507561600176 -1.531875112283734  -185.7824338274652 -4686.5607398504 86.93437059507873  217.7479245105575 1921.879212615063 -17.8485850305707  -57.65400634517044 4873.668993882287 682.901562712707  137.1819666097731 -3548.39311982035 603.2146616011223  -97.79124662181404 500.5247018588814 -1302.173397755452  -196.4887493669308 984.2165079122281 -0.4501657285895942  86.15051664901658 5438.700091250823 -603.6542613515862  128.6167499593917 -2799.736751831508 -896.6755829065945  -115.5447739376379 -536.404450915902 1263.825435039098  146.5567617375118 4113.597256219103 1062.908714588772  -77.70192869373679 -4618.461183648729 -1169.409525499496  -0.7956694329985065 -6504.902063166843 5.976532985955722  101.7625460066258 1816.621159359458 -1459.416804362373  -74.78
[...]
<PointData  Vectors="Self-Gravity"> 
<DataArray  type="Float64"  Name="Self-Gravity"  NumberOfComponents="3" format="ascii">-1.2808595612214155e-05 -1.6948085035844528e-07 -2.8779378801942677e-05  -1.3326283510729285e-05 2.5537553533414005e-07 2.8179928562594595e-05  -4.5160986298845331e-05 2.3136469548826803e-07 2.5046965048225594e-05  -9.7049845171876426e-05 8.1046568209253500e-07 2.0644117398410137e-05  -9.5412471029872727e-05 9.0546064831645408e-07 8.8516463774288766e-06  -1.5572241568248158e-04 1.3144476105508782e-06 6.5642194086024893e-06  -1.6983401394966074e-04 1.3524203775618123e-06 6.5907006934310935e-07  -1.6003980918500324e-04 1.0877642140941754e-06 -4.1213286827866178e-06  -9.8276907648414577e-05 9.3770422138233288e-07 -1.0886676842692867e-05  -9.2452195655853107e-05 7.4942287962861646e-07 -1.8582998811502245e-05  -4.3805020841089703e-05 3.8334152988232164e-07 -2.1548483758050909e-05  -5.4159841702219710e-05 1.4857820054136598e-06 1.8785426317838227e-05  -6.7498249061183254e-05 -6.7354715076606182e-07 -2.5000678028377578e-05  -1.4222505542552791e-04 8.6868037145020234e-07 1.8862532126214953e-06  -1.0069316007477048e-04 1.0836257011763002e-06 -1.4764197882436921e-05  -1.2680055403071377e-04 7.3125382274981123e-07 -8.1973050072832761e-06  -1.3085256152440351e-04 5.6895560536698303e-07 9.3661269893626389e-06  -7.2166798045921366e-05 -3.2823504085427734e-07 2.3482275237553404e-05  -3.1510923692695961e-05 1.3026725990019504e-06 -2.8170261903107752e-05  -1.0643462497029161e-04 1.3303570602541919e-06 1.6066343505290718e-05  -8.9525804206764056e-05 3.9353573274399349e-06 2.3274266014844055e-05  -1.2191056891810030e-04 2.8782047736882448e-06 1.2176686574478985e-05  -9.5002625825672815e-05 5.9530725046626297e-06 1.4498274801602578e-05  -9.9243451102858367e-05 3.9366560626322051e-06 4.2391861990862182e-06  -9.7208412450280643e-05 1.3682556126306156e-05 9.4321666046085208e-06  -9.5512636376434272e-05 5.8014796616745754e-06 -4.1049449649423668e-06  -1.0021215725221481e-04 2.3894853954133957e-05 -6.7441579817534617e-06  -6.6977534019940972e-05 6.7200594776443512e-06 -9.6040438247295643e-06  -5.1233142821412549e-05 2.3532059724834386e-05 -2.3710224843626978e-05  -4.3911834777378963e-05 5.8518980308128489e-06 -1.7027532201766721e-05  4.9807645160769608e-06 1.4278993361070304e-05 -3.3846964422427865e-05  -1.3141448344639148e-04 4.4742928839205167e-06 -9.5832093665915834e-06  -1.1096764335431277e-04 1.8678828927469920e-07 -1.5207469301154341e-05  -9.8323651684980313e-05 -9.5983618080724703e-07 -1.1470669173423098e-05  -1.3084843669203817e-04 2.3383121807655240e-07 -6.6482414416239889e-06  -2.1999229314346429e-05 5.6194604179119801e-06 -3.6407477909659687e-05  -6.7061594119474131e-05 3.1331489254174386e-06 -2.3150259096332263e-05  -8.7894422748682708e-05 -1.6838071885965900e-06 -1.9964158384973472e-05  -1.0065766453540942e-04 -6.0282960076868378e-06 -1.6645916858248761e-05  -1.3056143172889863e-04 6.9217093799085697e-07 -3.1480807946576253e-06  -1.4470862520738487e-04 2.2424910529915049e-06 -1.3101890982495539e-06  -1.1896418120679274e-04 7.3990089149692199e-07 8.7949389266787438e-06  -2.4851690889976468e-05 -1.2567052877708334e-06 3.2982174619278432e-05  -8.8919282454498992e-05 1.6808140072349627e-07 1.3363070789130057e-05  -9.5625466227749109e-05 -8.2223988903750112e-07 1.1828928278153459e-05  -6.2543645464264530e-05 1.8836597844140960e-05 2.5803227540339516e-05  3.4332624752140750e-05 2.4302078073016617e-05 -2.7508812420557377e-05  -4.2504944624860339e-05 3.3019713494261288e-06 2.5535360649442014e-05  -1.4239526134950155e-04 -2.3173836822044582e-08 6.5618580988541040e-06  -1.0643564101085699e-04 -2.9201238176103238e-06 6.9176995923017505e-06  -8.7378235916342779e-05 -6.3510595880846478e-06 2.2532924404559176e-05  -1.0920467277780176e-04 -1.6600723550490891e-05 1.8639311854827910e-05  -5.2380935449172262e-05 -1.7252438648591988e-05 3.5800048991749279e-05  -2.3426694155273415e-05 -3.7422461907286971e-05 2.9211074518472476e-05  4.7935714108252356e-05 -1.5731891649685983e-05 2.6272765777081390e-05  7.1832011614133537e-05 -2.2249029347254722e-05 1.4162363310717459e-05  1.0793176937988355e-04 -1.1847133309724611e-05 1.9901933324841364e-05  2.0391999935339033e-05 -4.4109729873122871e-05 -1.4061003352349000e-06  6.9806545573334003e-05 8.4121981446252413e-06 -2.2447772436500193e-05  5.1192564644158849e-05 4.7343849990477111e-06 -6.6632204282849817e-06  1.1177105747307594e-04 -9.0280089093580288e-06 5.4076505555107467e-06  1.2338000161441048e-04 -3.3945482626134473e-06 7.0935577077685021e-06  8.3059010866951021e-05 -2.1974714696601384e-06 -7.3275509683700350e-07  1.5767490061907154e-04 -1.2626127735573784e-06 3.2113932757902895e-06  1.6881153334612065e-04 -1.5537497149840528e-06 -3.2226544641308366e-06  9.6152679408490618e-05 -1.2462275759602486e-06 7.6592504285409744e-06  1.1408716808299135e-04 -1.9853885848236584e-06 -7.7701129868058822e-06  1.5283691245778140e-04 -8.4242205899283204e-07 5.3436218924265634e-06  1.2918259269628429e-04 -1.2053539933096407e-06 -8.4574813335153466e-06  1.2002763772895398e-04 -9.0704274423128669e-07 9.6281114395714566e-06  1.4980083793193389e-04 -1.1627607796628815e-06 6.0566585173837569e-06  9.0494770408900985e-05 -2.4214869686465675e-06 -1.2600697450253050e-05  3.5280444510973475e-05 1.6917769967504683e-06 -2.3786759959023051e-05  1.0617199692477512e-04 3.1143525281305798e-06 -1.3565068777633745e-05  1.1946851961604564e-04 -6.4216262025482362e-07 1.4885986540483529e-05  1.1696267705344283e-04 1.2618899441917254e-07 1.1070814887792763e-05  1.5595350350405043e-04 -9.7248535653782107e-07 -4.7092598119404361e-06  7.0250770048450935e-05 -5.8244187266019406e-06 2.3338881193155017e-05  9.2089502706303700e-05 -9.6018314705178346e-07 -1.2164547895323470e-05  -6.2470104692317929e-05 -8.7014709369448264e-06 -3.6664645766672544e-05  1.4468186843453814e-04 -8.0868271739583763e-07 2.7661967812221487e-06  8.2704868246652661e-05 -6.5805056890423122e-07 1.5131669144885400e-05  9.3883558625746066e-05 -1.8123188580959049e-06 -2.4661908593598569e-05  7.0983828258721300e-05 8.7134858701010128e-07 1.4891507835403257e-05  9.7162876734960878e-05 3.2365692733074305e-06 1.5935301631367960e-05  1.1045919208363973e-04 -5.4368960930239072e-06 -1.5314453799294382e-05  9.3946853942247153e-05 3.2132945537217767e-05 -8.5759106751447116e-06  7.2193842440473641e-05 -5.9159956719877512e-07 -2.0089368990055413e-05  9.5812592410714421e-05 -7.3680432139951652e-07 -1.1384667806511560e-05  7.0818286746395249e-05 5.5257015904604542e-06 2.6541613910448182e-05  6.0117254868102501e-05 7.4738010517714759e-06 1.6477898791816101e-05  4.1460350568405542e-05 1.7209250731969224e-06 2.5027064291574020e-05  -1.0369966401672939e-04 -9.7085437635928595e-06 5.6149438211225462e-07  1.2375953001828849e-04 2.8865035804622217e-06 -7.7504569213494812e-06  9.7547794582721851e-05 -1.9866398085658872e-08 -5.5603869935140294e-06  -6.7751740109636604e-05 -2.1151762493459652e-05 -3.8092248315429756e-05  1.0158320985861864e-05 -1.1194791042402136e-05 -3.0689982133897481e-05  -1.1756806008033599e-06 -5.3868210031372743e-06 -3.8416988541841944e-05  6.1592736425642204e-05 -1.3480618559165274e-06 -3.2034166054698270e-05  9.4498023715854722e-05 2.0902327725515288e-06 -2.5376740602219670e-05  -5.3133829489131795e-05 -5.1497944290870168e-06 2.9800297519696701e-05  1.4268994399456252e-04 7.3755418438002388e-06 1.2865974368442811e-05  1.6789953606620889e-05 -3.3120393249064541e-06 3.2971714671728826e-05  3.1082590798841813e-05 -1.7231579512767224e-06 2.7179513020024630e-05  3.9603281170754424e-05 -3.0762933066505625e-05 -2.9261946848875130e-05  3.4274272457690690e-05 -1.1362037948807394e-07 -2.7854817031553271e-05  2.4605322526141020e-05 1.3906864582531396e-05 3.4421472427347989e-05  7.6146880760524069e-05 -8.4583002528694941e-08 -2.0061612512714475e-05  9.6772531722599423e-05 1.8793054033396936e-07 -1.3931650360471505e-05  1.2599487069845795e-04 -9.1667460421801563e-07 -7.2579470050605516e-06  1.2301925116193238e-04 -1.0018928736819684e-06 -2.1611405669744503e-06  1.5935302217862419e-04 -1.2315321580060653e-06 3.2157236614187292e-06  7.2270780771279238e-05 -2.1108049833874754e-06 2.8132656822116259e-05  1.0377459030111771e-04 -2.8830993255936815e-06 1.8103085805815601e-05  1.3247748531813253e-05 2.8715043804840925e-05 2.9488114677298344e-05  2.1150980200208844e-05 -1.2418878958951438e-05 4.3164763579804863e-05  -1.0561491746810710e-04 -1.4262888508635798e-05 -1.3587156906884248e-05  -1.3850818108375690e-04 1.0818771473475575e-06 -8.2305698310709169e-06  5.8410301533750311e-07 8.9996844347247312e-07 2.7381395995253201e-05  -5.6819200968791853e-05 3.3176249494307439e-05 1.2957794050611820e-05  7.9683513479184644e-05 -5.1794083454636472e-06 -2.6448025294667367e-05  -1.5033289101150070e-04 8.5926588242012409e-07 3.2375308075648011e-06  -1.2261507341233938e-04 -4.0095132837127921e-06 -8.7275176128266625e-06  -1.3162150910198714e-04 -1.7299883324491900e-06 -1.5268024181795149e-06  1.2599633117455343e-04 7.4415559151620661e-07 5.4928325126234293e-06  1.1124828241458006e-04 -2.5896608427154274e-05 -7.1679967685346226e-06  9.6676805880918185e-05 -6.3023004332703170e-06 -5.7126422719209754e-06  1.7152998300677250e-05 5.7121584022451227e-06 3.4489448395442265e-05  3.7692253812703742e-05 -6.2490440870851732e-08 2.9782976237072593e-05  6.1646473064594387e-05 -7.7759633005145416e-08 1.7675920931456666e-05  -8.0423013969821325e-05 -2.8259488807971626e-05 3.6663398967382632e-06  -2.7602450261823551e-05 4.1115437685700097e-05 -1.4164614671718196e-05  -1.3613753100830603e-04 4.7421989908966124e-06 -1.9913843475682939e-05  -1.5850253012067333e-04 1.3314562662530922e-06 -2.6504447040900036e-06  -7.0757305957077802e-05 1.3488266374003358e-06 -2.1260171692075169e-05  1.3249558887669765e-04 -2.0160916127234600e-08 -5.3888810744771482e-07  4.3783531342833499e-05 6.7721831314518625e-06 -3.9057908297827904e-05  -8.4596133938932903e-05 -1.5548792186170893e-06 2.0439175996536926e-05  1.3832123742857946e-04 -1.0698468799228892e-06 -9.9222672503486424e-06  -4.4181439521122428e-05 7.3914564303015268e-06 2.5374022639625063e-05  -4.4579570743842651e-05 -1.7916288710611875e-06 -2.9031219992454975e-05  -5.9191451620463801e-05 -3.8429087329888947e-05 -2.1792300616909327e-05  9.9420489615895631e-05 -2.9128340713423490e-06 1.4231529398543530e-05  -1.4603593104232977e-04 1.7812972140062020e-06 4.0911614978292540e-06  -5.8108986591220439e-06 -9.6058131560710668e-07 -3.1861452464445026e-05  -1.0584647447103164e-04 1.3688922347083825e-06 -1.1381970495219390e-05  1.5994145523041985e-04 -1.7074761063426556e-06 8.3551785085998097e-08  1.2666784273935607e-04 1.1964423633847634e-05 -7.7761583697801614e-07  9.7943470651428835e-05 2.3431005739203759e-05 1.2848559720766205e-05  -1.6969745324035406e-04 1.0407785335531489e-06 -1.1024924844688921e-06  3.7177545476119853e-05 -1.8948405672125664e-06 -2.5728009480267294e-05  -4.0526529402325734e-05 -2.4455829234435140e-06 3.0580752698399054e-05  6.0834476321096024e-05 -4.0234436610678777e-07 2.0944587947179906e-05  9.5428688727947227e-05 -1.4983546779332339e-05 -1.5376326109984635e-05  -1.5313314124011732e-04 1.2558626920888534e-06 -6.0645656912256713e-06  2.4279749318025559e-05 3.3745255192815660e-05 7.3542307451715926e-06  1.0156053906659611e-04 -1.1874927643265465e-06 1.7188063844820807e-05  9.0009933083606079e-05 -1.4614102546068837e-06 2.5917383902687319e-05  1.0022960434817157e-04 -1.7716748328176272e-05 -3.5577199641572149e-05  1.5131330128390489e-04 3.4105235462452019e-06 1.4184919594285381e-06  4.2517082154467312e-06 1.8339254187917809e-07 -9.8994836433865154e-07  7.4041532309287352e-05 2.9174688364138519e-06 -1.4689065797786489e-06  -1.1364101229675272e-04 6.7278146511533988e-07 -6.4975390951708005e-07  6.0367426700252626e-05 -7.4390715659009489e-06 -1.4962737581484142e-05  -8.5110629439171591e-05 2.3487621622591121e-06 -7.0415541785922387e-06  4.5190527500587142e-05 -6.6801353659581714e-07 1.5610403066407251e-05  1.0422026274895801e-04 -9.2395563534535912e-07 -1.4378287249370927e-06  -2.6350419901554083e-05 -1.1146033019563341e-05 1.6253178165573686e-05  -7.3026923095739904e-05 1.7881109710984487e-06 7.4759689871588410e-06  5.8888700680211683e-05 -5.8969402204505689e-08 -1.4572309538584313e-05  -7.1643304311857212e-05 -4.1983301982833086e-06 -2.0430520518550902e-05  2.1602479237307994e-05 3.3771716711796111e-06 1.2629331369092712e-05  -2.1276797006850549e-05 1.0793105726712116e-05 1.4492876218020715e-06  -5.0906117797392856e-05 -8.1166055951835575e-07 2.1811226040309654e-05  2.1484222041051577e-05 3.8882822434866507e-06 -1.7126227514141883e-05  -3.7222607726042047e-05 9.9924858640630853e-07 -2.2433368779193784e-05  6.5468968369414635e-05 -4.1958135664416836e-06 7.4075214294047762e-06  1.0414619794697961e-04 2.4049132801556746e-07 6.7589617657883540e-06  -9.5234621598147171e-05 5.1505639315761668e-07 -1.0464151908769919e-05  1.5389878093458061e-05 -2.8359874646902483e-06 -2.6820131545610926e-05  -4.4916101045214562e-05 -2.1661416222360419e-05 -1.7482901082861429e-05  -9.9646123477685380e-05 -2.2652733518270355e-06 1.2814971754946667e-05  -9.8645356827078791e-05 -5.7404456662993613e-06 -5.3642664546473294e-07  1.0705199698528860e-04 -1.5303134949548154e-06 -1.2408982408891655e-05  -1.3394613503984014e-04 1.0777007741130072e-06 1.5810614233927937e-06  2.8694282088198361e-05 -6.3324937963628434e-06 2.9288241947093590e-05  1.2072895300878323e-04 -1.4163213691574071e-07 -7.7627247884601294e-06  -1.1487134880297781e-04 7.6744692333736953e-07 9.5306170762879442e-06  -1.0959836757403515e-04 5.5766064535335644e-06 2.8407635065885256e-06  1.1353639475625696e-04 -1.4235867219094229e-06 1.0548102705147255e-05  -3.1056191016992522e-05 1.3738512045542388e-06 2.0964541076000110e-05  7.4172549020208345e-05 1.5852131059490216e-05 1.5379910723507435e-05  6.2980811381463817e-05 1.8227601009418519e-05 -1.4964926246905673e-05  -6.4615544717748247e-05 1.1591475189980843e-05 -1.9518873397590852e-05  1.1743199064936927e-04 -5.2628864477415660e-06 -2.7140327246155027e-06  -5.7143500073569696e-05 1.1586721794521979e-05 2.4096078469982219e-05  5.6710748165992115e-05 -2.4189282792844953e-05 5.7707526713196938e-06  7.3620007645472217e-05 8.8978009103777601e-07 1.9910806784012519e-05  -1.2626202634821531e-04 -5.1941452266075315e-07 -8.3512513619843379e-06  -1.1485738297676819e-05 -3.8438985208587935e-06 -8.1282869808527245e-06  -4.9765329419360519e-05 -1.2317763364651040e-06 1.0371245376954866e-05  </DataArray> 
</PointData> 
</Piece>
</UnstructuredGrid>
</VTKFile>