<?xml version="1.0"?>
<VTKFile type="UnstructuredGrid"  version="0.1"  >
<UnstructuredGrid>
<Piece  NumberOfPoints="201" NumberOfCells="657">
<Points>
<DataArray  type="Float64"  NumberOfComponents="3"  format="ascii">-2.184399634353526 11.68185775125699 199.6406685913969  0.7344520949935273 -11.94525706269815 -200.2659672276111  716.2567323558956 -1.966627507922899 -208.2810282386168  1322.164595021503 7.174869605405064 -201.0799428554391  1759.411794482686 13.20728300216587 -169.8658940997715  2019.977252396751 15.69991005769212 -104.8282187071938  2106.638303080436 16.30744278040465 -20.30959569496859  2020.182702330089 16.80118299378784 63.96846864279959  1759.340183122621 18.08790314635766 130.4232087298729  1321.38607552147 19.39999351604219 167.5811384031998  714.7408032888899 18.17814772141559 188.2041900187365  882.6912167178082 -543.1836952354813 -296.5227069554342  892.8250879274893 442.2246508450928 255.6121660165551  2004.188713138231 -457.2531622644976 -119.3412441329337  1501.01784658154 -505.352834797999 66.44277320663896  1856.425041646409 498.1668802192734 157.5683366482439  1851.348841373486 495.5515854057692 -69.53180679842018  999.3614784521592 491.7949205641365 -118.3051064733902  342.1455040614489 -478.5971073533204 100.2016327078073  1492.194936431265 -471.9941167888839 -256.6343921140806  1033.870652370617 -937.7902805100375 -327.5707075738979  1504.633113735571 -904.8848876770959 -268.6701076590116  1020.81808974214 -1295.51421963354 -312.8806077033582  1424.544592752069 -1205.809271658076 -232.9320035673693  884.3199115192105 -1529.701499294675 -261.4169215561502  1263.97115181351 -1370.014608244599 -174.8354599440971  654.1834642186107 -1632.390664706493 -196.5257932728917  968.966430692248 -1423.296018076791 -116.0844999846717  338.1882988587436 -1598.895017896484 -133.5356178357382  630.444581731418 -1315.497282117093 -63.46579961620449  -40.74036195109806 -1419.115562892076 -72.04975911155617  1494.768238236888 -1115.594397023669 -87.48752055005446  1503.410839306411 500.4870114421096 222.060651812356  1494.302772418456 939.3759077961574 242.5275723655469  1774.219897942756 895.844215366403 155.3279676535531  235.3199348436063 -1065.522206067326 -8.077351629810639  894.4893191103806 -925.1879209569726 7.880502650756405  1057.047018626875 906.9544858093782 300.2132050074995  994.268152088684 1297.719309584486 300.8411437053509  2008.79533197875 -445.3157174905524 -35.62235415804185  1761.781340442966 -933.9561927272628 -130.8619238793599  1851.709759877432 -466.6152004221021 -194.3467481724151  355.9110664586647 486.4658974304812 -109.1366273856508  1492.806856479358 481.6473048508944 -112.4176881785486  1486.395832462369 931.7119163739596 -18.15222181214001  425.2281179704282 -1554.748828733655 -324.544279117188  -325.4775170604427 -1624.486254564389 -132.4657226178857  443.3571005814259 -976.1851574133175 -351.3456311117807  1763.836673686269 906.0185852038062 31.52043526773085  1326.336548189596 1292.914481431058 78.47553237976973  967.3567029490556 1264.458687679919 36.33351620113825  752.175129429169 1554.002403380563 121.0360363966324  347.4798688552596 1466.352502603702 80.19204482905151  110.0792229941709 1670.957303278654 152.7222285550696  -324.3761266088695 1499.418655014445 99.87872991776015  -533.679176797188 1634.146641620308 168.2538610066479  -962.9808412865494 1401.139656563965 106.476469381821  -90.36585201686958 1730.038278426889 231.5142429057751  -706.935523827291 -1370.36341141809 -58.28435327126164  -947.9314590164662 -1503.551774644854 -117.935277847495  -1118.590195321978 1448.642641684726 171.7105013244132  -1492.527281992834 1135.694211150583 95.95359272087619  -1580.309892761296 1130.609297325676 165.6259942875926  -1866.740125055191 742.5176284384321 68.75701261484062  -1891.25688395308 704.7045026472455 149.2255406537481  -1685.118668194851 707.111209480777 -2.804974600926807  -1534.088548554666 1050.37994544507 242.4060172455735  -1988.703716685831 299.9205200584375 -19.52509455588758  -1774.123543843717 581.7692897716964 215.801229429119  -1735.986575354694 187.2307525465427 -100.7542135739166  -1920.419244885316 -247.9651280600814 -123.8017653962177  -1336.182449860434 890.4713595228343 297.3178138227564  -328.2571988979649 -747.0342901280311 59.55173303433182  -1303.741891339443 -1178.105485644124 -32.92039433552992  -1581.121187672228 -333.2618692878901 -194.6889151369475  -1673.14016736377 -748.0881561769656 -208.1648275698213  -2031.075562467293 185.4985887363862 116.0615765235355  -722.3148187420152 1174.969627283491 35.37542890078633  -1503.498263464879 377.747086594657 246.7494778037537  487.0270964286321 1207.435950055726 350.2762267167801  -1957.086564766453 -612.5675930902544 -102.534855234503  -1306.090929901394 107.5639196883175 -148.2577741084029  -1008.358903867726 690.091311078895 310.9809453359467  -1240.092489383442 -809.7755644761762 -277.763161766921  -1267.514232574508 -1178.975697318607 -269.559720526814  -1043.105844638406 1300.518600425215 309.7808424528421  -545.5209146855005 -1682.332982412425 -195.3460905766863  -1086.203988668532 114.329489986976 225.7432421028945  -1559.903059187401 -178.9233470442447 162.9559003827258  -753.6446270368248 -1188.65012514186 -333.2974234120156  -737.9542622658248 -1489.003774253563 -304.2230008641448  -668.9810423556829 -772.3448033430983 -311.5914148280892  1080.121152644193 1509.41942218693 172.6481901402925  -1450.60816141205 -1256.477592723476 -97.04137375930165  -1750.816020448465 -860.1090044357352 -8.151786185787499  397.9204764918346 1525.881933654993 328.2954382687334  -128.1254024608753 1383.752176618728 360.4046968617968  -38.87296565471029 1062.122411179376 358.5703697265882  -618.3796526725462 456.0127965460542 286.6259591046094  -1010.7654832755 -973.9134420413453 26.39571127311804  536.0591500741582 1176.418824231748 16.41805639164311  -1195.784792334066 -1409.22425097774 -228.4266071157724  -156.0990891097666 904.050427840342 -23.23485419861286  -375.3796667605758 381.5175064016403 -118.6834082133958  -221.6973459042067 1627.044795761467 312.1633857880338  -495.83925843383 -276.4113032609949 150.9563153709863  -171.2526202843089 -1447.951405970101 -352.6085040974423  -1040.923348091967 -450.1421602141642 125.6665795893214  -1538.992923935664 -719.0728422391528 61.14882489881874  -1879.161030709371 -353.4410821830102 92.45318649652116  -2023.454690336134 -453.2890467296916 4.820461708441861  -2096.699235435545 -73.26390150677553 -11.11358625644472  -857.2005195376743 758.9814272585363 -41.0604959268337  -1270.52035325848 831.5686535109661 -15.18545139852731  -197.5306255651113 -1643.677616412368 -306.2367475444102  -60.52611324247394 1307.231581876754 48.89648505866932  856.5123652330171 1541.21239141031 261.9619585097904  1842.941493632389 -442.8069545766965 34.14524133205026  108.3640505703411 -524.9238347844648 -293.3060530810185  315.7806301531826 -1690.754609263383 -266.5232503571937  -658.9783708009209 1135.130495492106 354.201587715642  2021.437338525948 460.0046230303022 -7.335377074694877  1362.16457914252 1282.234141991885 219.4810490341062  1595.717291450458 1164.118836508963 124.0628531781317  -1624.328117639476 -1059.723920044411 -186.3791200116371  -681.5984072661157 1627.728411760005 239.5562126325477  -1157.723767457512 1405.551376799946 243.7943778375926  -133.3870330903578 -1101.884944472298 -358.7615417242628  -542.0935867157892 -220.2275326077489 -229.6232999917155  -1115.481708531407 -342.3884496687664 -230.7016093202872  500.0368612199485 1691.104628973588 200.7191617010837  39.04045846275107 -1723.159157402202 -197.3075698363105  1182.771821718979 -1103.876442062261 -39.62917048421185  2023.831182309933 466.1655198975979 73.22146469242071  986.2390890364812 -467.1518209972855 93.67503553958819  -1788.970551538853 -951.6056324174114 -91.87488408365373  -412.4353012917561 -1177.928746802045 -18.64970095268888  1091.229662116558 872.7857164803206 -45.62978372552655  -1843.911050071467 128.1266374826706 173.1089011157461  474.8265864926762 -1315.510986083459 -358.3230238628937  562.2078858539352 877.7505270711741 327.1983501217869  314.606928118487 1684.11480832331 274.0914113201356  -1325.486586309181 1092.917848501986 49.51220622847534  1763.357755818377 -833.2343641720051 -196.7698311702439  -30.74114147294672 484.4155507028725 284.5712942174299  1617.468020650024 -813.9886480673161 -13.72919274330397  -2039.565522313424 404.7973579863497 65.27059697483423  -1099.67006388984 -1503.302633030514 -178.1988860288227  -679.6103480462627 -1632.545551514603 -249.620465424246  1896.520001985709 792.4286735480744 74.42572029478876  -494.1279556294232 888.4339513879326 343.5441984474051  641.3638531234992 807.455626661673 -55.06735028932583  -775.8376605668566 116.2388863381378 -161.7845259467838  -761.0262113620535 1521.426821370846 296.3630074312107  1796.035863706352 -773.5675032394716 -45.40043737086135  -161.1344463574906 -1724.513319165492 -250.4346256172838  -1416.369845461166 448.7762741564475 -80.56309171293626  -991.2976620705984 382.6354561964579 -108.3665046056559  -588.9233108914616 1411.117253281091 342.0854541309643  -1490.730922806127 -1254.303129788339 -156.8369515857636  -0.03197058081037215 0.02463540719672699 -0.05313903894104397  -735.3529455751426 -717.6486501148885 -107.8838387878122  1101.705341030274 289.0224265256123 32.83989938588432  -431.6059732391118 744.2061023298294 184.3716121172324  816.2865447625941 -519.5263836186689 -60.39110064318206  -545.8615356840804 67.11775496734538 -68.91591033961528  -1128.38791449457 129.4020609986025 38.39455984873683  228.0156381572292 844.71232038787 104.8971575814153  766.446445384673 -412.2680507532565 -147.8073210113236  -608.0783049614763 -81.70740496652591 82.3507798537053  581.4835239656734 639.0401809364995 178.1764638885491  -220.7940923379968 -724.6748034694388 -205.3045629573537  173.9537939087418 -1026.267399229698 -176.7382960683759  467.6117865955136 277.0641187676711 -56.452430841144
[...]
<PointData  Vectors="Coriolis"> 
<DataArray  type="Float64"  Name="Coriolis"  NumberOfComponents="3" format="ascii">-2.5486284345909538e-10 2.6644838627528594e-12 1.2421786660916585e-11  2.4786392301225906e-10 2.0162719304570190e-11 5.6104243336845498e-13  2.8583755564794291e-10 -2.4998851836116589e-09 -1.4011599175083430e-09  2.5513331596627730e-10 -4.0988511849752143e-09 -2.2881968854232510e-09  1.8052463629420054e-10 -4.7201425279936243e-09 -2.6301715428693006e-09  1.4142501188219636e-10 -4.8644640134559245e-09 -2.7086752417581493e-09  1.3210611359711348e-10 -4.8790717046493125e-09 -2.7163909301959994e-09  1.1879586155312273e-10 -4.8713167862546292e-09 -2.7115110259617838e-09  6.9237749019613406e-11 -4.7359126380772011e-09 -2.6341554880905511e-09  -4.0537096695078906e-11 -4.1288106565155579e-09 -2.2921484493199021e-09  -1.5087682807560085e-10 -2.5316323447805733e-09 -1.4000495659635696e-09  -4.6528380154172693e-10 -2.8048336915364373e-09 -1.5383373187691109e-09  4.7965489859756480e-10 -3.0155672355659536e-09 -1.6959837871981291e-09  -2.6919810468499618e-10 -4.6676384410973468e-09 -2.5816943406283350e-09  -5.5837164678590920e-10 -4.2352810826503704e-09 -2.3290703751067644e-09  5.6553451440528864e-10 -4.6636099193362321e-09 -2.6152918582072932e-09  6.1376073878078628e-10 -4.6861080533092372e-09 -2.6298617813111081e-09  9.3508000425735121e-10 -3.2897788909626960e-09 -1.8678823078922132e-09  -9.6179671151719705e-10 -1.1970535828115329e-09 -6.2376957877108371e-10  -3.2641471041612867e-10 -4.1762705605492170e-09 -2.3062433330210975e-09  -8.1952337486531754e-10 -2.8892717468131713e-09 -1.5700417311631162e-09  -6.7604866223428875e-10 -3.8037263798860555e-09 -2.0842548223525092e-09  -9.6404782511527292e-10 -2.5122577988639827e-09 -1.3543754050908599e-09  -8.0812210514155311e-10 -3.3160064811356640e-09 -1.8076169048109061e-09  -9.9130905865536075e-10 -2.0015593461466445e-09 -1.0694707051922051e-09  -8.9706253907104468e-10 -2.8773264739383994e-09 -1.5600763509869964e-09  -1.0690567471985097e-09 -1.4255752042060960e-09 -7.4612709625789880e-10  -1.0873519125104280e-09 -2.3106000963317624e-09 -1.2370446823476391e-09  -1.2621926772428477e-09 -7.2481253627079005e-10 -3.4850520716154289e-10  -1.3514783729055560e-09 -1.6608394756853645e-09 -8.6471088559376029e-10  -1.4994465853489832e-09 2.2482158507091627e-10 1.8927894926789131e-10  -8.3067800488311811e-10 -3.5694471455965063e-09 -1.9474553801658513e-09  5.6724340627255964e-10 -4.3059051103571923e-09 -2.4166312281529066e-09  9.3430675820254366e-10 -3.9355029075822791e-09 -2.2266011041583020e-09  8.5083469281875220e-10 -4.2728500528657157e-09 -2.4104412497268891e-09  -1.5094635255746214e-09 -6.6749026117543322e-10 -3.0604252036564187e-10  -1.1954740118039441e-09 -2.6780367467426734e-09 -1.4365437409863457e-09  9.6945771238395191e-10 -3.1580125060970320e-09 -1.7961512689448051e-09  1.1537014135007826e-09 -2.6870004880988927e-09 -1.5423756609967600e-09  -2.6736750303026565e-10 -4.6895975672275889e-09 -2.5939730028756827e-09  -6.2468404757565057e-10 -4.0649960468516760e-09 -2.2316164049834351e-09  -2.9571232877410612e-10 -4.5923065526341360e-09 -2.5387030997874271e-09  1.0322597292503078e-09 -1.2794867428299286e-09 -7.5517419134773989e-10  7.6221659184537045e-10 -4.3251372549584802e-09 -2.4356865850321201e-09  1.0610956605821175e-09 -3.9695066916734801e-09 -2.2509361015924042e-09  -1.1144098037080445e-09 -9.4016077855408348e-10 -4.7449302597967489e-10  -1.3265781221088290e-09 9.6383954666628751e-10 5.9244191365338483e-10  -9.6600572041506622e-10 -1.2986252533471895e-09 -6.8002017279201739e-10  8.9292644643708944e-10 -4.2734116063498662e-09 -2.4125602682346683e-09  1.1475793400340199e-09 -3.3250102134320147e-09 -1.8965789145161228e-09  1.3566877836407089e-09 -2.7165215688822662e-09 -1.5674913672181927e-09  1.2738530677163691e-09 -1.9812432424026512e-09 -1.1554285467399780e-09  1.4477151518341768e-09 -1.0522967113493251e-09 -6.4678753544546021e-10  1.2498143821236492e-09 -3.8259295274783312e-10 -2.6621682804597665e-10  1.3697534873849390e-09 7.7081849910607974e-10 3.6944758081195840e-10  1.1401657518243519e-09 1.1972180404167138e-09 6.1620343368153159e-10  1.1329161406719120e-09 2.3489415866155895e-09 1.2563903797473938e-09  1.1182558894595795e-09 1.0576720412001079e-10 1.0754697544026742e-11  -1.4513080969573462e-09 2.0442237967379712e-09 1.1980376212854458e-09  -1.2699411492664883e-09 2.4379655849398777e-09 1.4090068591514758e-09  9.8396091369219790e-10 2.5663577726720676e-09 1.3835774388257547e-09  8.6074661799746986e-10 3.5328354112580429e-09 1.9258237285731252e-09  7.7713591177586945e-10 3.6148128254942536e-09 1.9749582913803821e-09  5.1589052055301626e-10 4.3522633299109769e-09 2.3958872346709276e-09  4.6997216724285092e-10 4.3834258393132322e-09 2.4151718414963995e-09  6.1625982357183912e-10 4.2591363557994600e-09 2.3398387293480667e-09  7.6132012617508746e-10 3.6563473629722365e-09 1.9987130744348712e-09  1.7783831258712133e-10 4.7440657809330374e-09 2.6280780615509863e-09  4.0925400770216633e-10 4.4086654338122210e-09 2.4318011559705046e-09  1.6135604955917245e-10 4.6584591586873041e-09 2.5812242448225289e-09  -3.3972895719778107e-10 4.7752466560080640e-09 2.6676211082491475e-09  7.3006989570336335e-10 3.5555174934803752e-09 1.9440355105863167e-09  -1.3338162592457767e-09 1.1950958310795420e-09 7.2123424904936393e-10  -1.2267096021072483e-09 3.4380346848333223e-09 1.9627702834901350e-09  -3.9824913353973688e-10 4.4714040895381064e-09 2.5013242669268309e-09  -8.0184654170062251e-10 4.3080022824927285e-09 2.4278680629736711e-09  5.7190609267330364e-11 4.7887049955211306e-09 2.6580582558430124e-09  1.3438240973508967e-09 2.0246731563369111e-09 1.0671785679675396e-09  2.3947690914639828e-10 4.2476654474553909e-09 2.3496412794013827e-09  1.1730929541563111e-09 -1.5189923157855114e-09 -8.9428501045400120e-10  -6.5593403332612963e-10 4.6035582789709472e-09 2.5858092261411874e-09  1.9863458603053880e-10 4.0612666257964096e-09 2.2478350275018334e-09  6.3370468566113897e-10 3.0346793537890347e-09 1.6588047678094163e-09  -8.9609908770277336e-10 3.6121492389425423e-09 2.0453116673699714e-09  -1.1001958059574064e-09 3.3330537653650562e-09 1.8990135490040757e-09  9.8938800180082887e-10 2.5616325990867070e-09 1.3807192332790490e-09  -1.1985182031302493e-09 1.4376972824561368e-09 8.5021055958024763e-10  -1.1217060233421971e-10 3.5289324583246804e-09 1.9654233767744689e-09  -4.1435008665354608e-10 4.4860480503806032e-09 2.5101513990832429e-09  -1.1719042905943429e-09 2.2392729111110154e-09 1.2944081907950350e-09  -1.2159429830504205e-09 1.9879770493130040e-09 1.1566835991940358e-09  -8.8147517033419744e-10 2.2437343397452730e-09 1.2844185391710506e-09  1.1427866380236125e-09 -2.6742820574088018e-09 -1.5348409632356929e-09  -1.1179240170657059e-09 3.5475152053166483e-09 2.0189253346080518e-09  -9.0109435703678244e-10 4.3063194961278144e-09 2.4311939208468293e-09  1.2007203699638482e-09 -1.1432441231995055e-09 -6.8671252073539164e-10  1.1768638741971571e-09 2.6161614161000950e-10 9.4825321397761589e-11  1.0778219031048178e-09 2.7291077337997244e-11 -3.1109286244190991e-11  3.9421663375192778e-10 2.0651592371641621e-09 1.1304392146881167e-09  -1.3397530323779564e-09 3.0540998434428921e-09 1.7543164198477475e-09  1.5273505385153266e-09 -1.6932621625529454e-09 -1.0063145651760389e-09  -1.1591890561489849e-09 2.9656856619352685e-09 1.6974434359963002e-09  1.4390864614259101e-09 4.5151620711064931e-10 1.8907277963059618e-10  8.2273708869887029e-10 1.3281843524152514e-09 7.0259327464328835e-10  1.1279067148003492e-09 4.4514479916318367e-10 1.9889212275773300e-10  -7.4229853706373549e-10 1.7842340843893751e-09 1.0231539740057868e-09  -1.2239906722294138e-09 5.8520111179395621e-10 3.7767343991094472e-10  -8.8551847580346213e-10 3.3935549356232995e-09 1.9234105931317890e-09  -9.5447691905478746e-10 4.2286858548647362e-09 2.3903538979169029e-09  -4.8981824785007500e-10 4.7287762579753317e-09 2.6482464823008681e-09  -5.2458103135970905e-10 4.7248555688913307e-09 2.6475606139198074e-09  -1.8193609502184643e-10 4.8410834392100702e-09 2.6974246097446589e-09  1.1116820358002372e-09 2.6966912599689356e-09 1.4505050854269204e-09  9.4364481123785716e-10 3.5749099676694555e-09 1.9456406718815859e-09  -1.1815442106117354e-09 6.3647375598481141e-10 4.0433728869761725e-10  1.5221853351131295e-09 8.8809396218178478e-11 -1.6007727626857134e-11  1.1553503757541721e-09 -2.1913791404223276e-09 -1.2670886501863040e-09  -3.3896284326054236e-10 -4.6336014187022772e-09 -2.5597889660835100e-09  -5.2344207646589623e-10 -2.9917157881921857e-10 -1.4374228887635432e-10  -1.0939623351234763e-09 -6.1546800598049394e-10 -2.9497771692639209e-10  1.0371824530151032e-09 1.8168654187017407e-09 9.6488889033530405e-10  5.2228154104424430e-10 -4.7625483829069605e-09 -2.6684033062551897e-09  1.0760289450589561e-09 -3.3652763424603028e-09 -1.9158782992967348e-09  1.0034039777121055e-09 -3.8111753982182023e-09 -2.1604934973319944e-09  -9.8181189260708003e-10 3.9535375749934922e-09 2.2386602531392198e-09  1.0508759347509874e-09 1.5164198556331047e-09 7.9737917388160584e-10  9.4469859637906177e-10 2.6616659600832075e-09 1.4382144167878254e-09  -1.1310927683154399e-09 5.1380231524098035e-10 3.3401744979768198e-10  -1.3967474676576807e-10 1.9494176408960574e-09 1.0890557345513109e-09  -3.6575655959821156e-10 3.6117107733936620e-09 2.0223000679025517e-09  1.1773125750698837e-09 -1.3109319967772360e-09 -7.7887180263436229e-10  -1.1652552883873050e-09 5.7978129881019920e-11 8.2236817110225962e-11  -1.0618814777987122e-09 -3.1044762357660940e-09 -1.6792006431595116e-09  5.2387857985217335e-10 -4.7528799641873761e-09 -2.6631002786085689e-09  -7.5111125467248674e-10 -3.1910131328185280e-09 -1.7406204937683040e-09  -9.0039394908911103e-10 4.2348787103935423e-09 2.3914727089236776e-09  -1.5588420277090293e-09 1.3545771373532011e-09 8.1949955443228123e-10  1.2420412976696558e-09 -3.3149880411165821e-09 -1.8950661076319283e-09  -1.4819240721286357e-11 4.7251695318674660e-09 2.6258505956981415e-09  -1.1188631781791359e-09 -1.1994059710295838e-09 -6.1833354156718955e-10  9.7322606977122110e-10 -1.8697471350851510e-09 -1.0805772893797865e-09  1.1490439615927386e-09 -8.7293960816581882e-10 -5.3431796268185415e-10  9.8605978892937713e-10 3.3783787755216090e-09 1.8346307700924867e-09  -5.6339735356842772e-10 -4.1752962212956394e-09 -2.2955281687875858e-09  4.6954589057064584e-10 5.3074056813459262e-11 9.3289855468488563e-12  -7.0834643286075427e-10 -4.0951772637633555e-09 -2.2447928275581902e-09  2.4144288678048960e-10 4.6866485724720501e-09 2.5934475603507931e-09  -1.1865311699301023e-09 2.7033487746859983e-09 1.5528678640268974e-09  -1.1841171418264838e-09 1.7563725067710866e-09 1.0266422099078461e-09  7.6892001425708555e-10 -4.4672606272976285e-09 -2.5149354126641978e-09  8.9498542759951797e-10 1.4969239809707701e-09 7.9324013100186968e-10  1.3346245922013463e-09 -2.1657009212466477e-09 -1.2605186940910693e-09  3.4976689322082078e-10 2.7056341966853020e-09 1.4881831907906098e-09  1.0514810326974312e-09 1.7739432789073394e-09 9.4042831657421866e-10  -5.6560516810455426e-10 -4.2905119668969012e-09 -2.3594450643745183e-09  -1.1530047515392091e-09 5.3941225027310918e-10 3.4918654062994938e-10  5.7233848839826163e-10 4.1496675151454494e-09 2.2809054971781932e-09  6.6182468848265587e-10 3.2344390417898601e-09 1.7685802417430087e-09  1.1024691294169775e-09 1.4581583781037694e-09 7.6279527022395203e-10  -1.0729896710116781e-09 3.5841483888880818e-09 2.0373489705670604e-09  -1.6513136366047259e-12 2.5720293884762984e-12 1.4998627631366211e-12  -1.0550724912795062e-09 2.4780851887243890e-09 1.4220720784326575e-09  4.8857359944348158e-10 -3.6166359812146526e-09 -2.0303090459789476e-09  9.5206558209744813e-10 1.3962404177086493e-09 7.3485176346348379e-10  -7.1832673091367667e-10 -2.6947123524144910e-09 -1.4662926756926047e-09  1.7787711203362660e-10 1.9754172789153806e-09 1.0898679035562383e-09  9.7955879572621578e-11 3.6723487142797674e-09 2.0360818380721164e-09  1.2413748047539452e-09 -8.4130624887090178e-10 -5.2070690069298462e-10  -4.6344771600523599e-10 -2.5803136657401213e-09 -1.4136770837246537e-09  -2.8602752694881305e-10 2.1674432289392656e-09 1.2164696408297729e-09  8.6889026169655820e-10 -2.0313667203405309e-09 -1.1658908462448555e-09  -9.5752905781779689e-10 8.2686310740661298e-10 5.0049685826284508e-10  -1.2924294442999063e-09 -4.7099913851299605e-10 -2.0619322010201612e-10  5.9637204609816487e-10 -1.6934333889984843e-09 -9.6644210121310366e-10  -1.2502549687993291e-09 7.1259315582246880e-10 4.4957758425943730e-10  -2.4737602118144721e-10 -1.4901174791852306e-09 -8.1726091797857706e-10  1.0180364032927482e-09 2.3911819308145832e-09 1.2847901842024508e-09  -5.5371619434162755e-10 3.6543876333196514e-09 2.0540797661566525e-09  9.3880590830073982e-11 -3.7572848715050730e-09 -2.0915064342272920e-09  5.9284278041184192e-10 5.0300742665303878e-10 2.5401018876848994e-10  1.3082281874079809e-09 -8.4632907326466309e-10 -5.2636755155482561e-10  1.0048571608055599e-09 -3.1681774072547198e-09 -1.8033184193141599e-09  1.1585625476824955e-09 -2.9739705733637941e-09 -1.7020194788683948e-09  4.0503397568759024e-10 3.4926985372847303e-09 1.9230885243915195e-09  -3.0933196224439526e-10 -4.0640605883811534e-09 -2.2446349799166646e-09  1.1454804686771745e-09 8.7463147550885449e-10 4.3675230393709597e-10  -6.3859946767497435e-10 4.0419576258357883e-09 2.2730503902185668e-09  2.5238620873844867e-10 -4.0531528307070874e-09 -2.2626898129019427e-09  -9.6702440910143064e-10 -2.7421360893838476e-09 -1.4819636277466291e-09  4.1397018049745251e-10 3.8226595131888460e-09 2.1060249341521340e-09  -3.7910908680817634e-10 -9.8561806801016517e-10 -5.3131523485979077e-10  -1.3240928866488680e-09 1.4731871938755838e-09 8.7531909380326108e-10  -1.4228992516024226e-09 1.4139131695152808e-09 8.4662940251958720e-10  -1.3048448886011984e-09 -1.4569921660585567e-09 -7.5345920419653349e-10  9.1521129963250525e-10 3.1098978359381590e-09 1.6885094402341949e-09  -1.1429713759030776e-09 -1.2136929619500755e-09 -6.2523613948254804e-10  1.3430454404975770e-09 7.8800864335628119e-10 3.8014469445007939e-10  -6.1596143252853239e-10 2.6037496756344444e-09 1.4730375172355089e-09  7.7688229878878447e-10 -3.8618958553280382e-09 -2.1789480764685512e-09  8.3013326085353061e-10 -6.4795084931970814e-10 -3.9562741208570195e-10  5.5296653478774026e-10 -1.8098686706163076e-09 -1.0292679002915122e-09  </DataArray> 
</PointData> 
</Piece>
</UnstructuredGrid>
</VTKFile>