<?xml version="1.0"?>
<VTKFile type="UnstructuredGrid"  version="0.1"  >
<UnstructuredGrid>
<Piece  NumberOfPoints="201" NumberOfCells="657">
<Points>
<DataArray  type="Float64"  NumberOfComponents="3"  format="ascii">0.5172416774686989 -0.4717027571909536 1839.61684255092  -0.4129546699794321 0.06806861138034787 -1839.552933019305  611.8836642390029 0.03192220475080711 -1749.597499026946  1162.739036918864 -0.4137574579939907 -1489.195906500668  1600.679164537766 -0.07716776518510848 -1081.036738378752  1883.02559414496 -0.06269055012073625 -568.4757782289414  1980.858805050535 0.1117963781613676 1.362251464801994  1883.332121891128 -0.3423627493251569 570.1593554836887  1602.638441196903 0.06078699510837687 1082.420646274103  1164.868898306187 0.1649050816257732 1488.396919392741  611.4435554383801 0.2210676951433313 1749.170668690981  779.7994707506646 -80.03884996053158 -1608.343342081661  773.5378036324831 62.39071183242324 1645.169337018168  1893.826755108388 -72.2949174958746 -273.7569320429914  1366.949087251572 -77.78908422602458 1233.593750455637  1723.05459071063 72.97468414730338 778.5767524100913  1715.576135112361 72.89747487334277 -789.9550254048938  869.2527543901319 71.72346447815075 -1585.719507781924  299.6051217198718 -71.80979740148496 1756.738355971826  1354.368122981399 -71.87124940574398 -1257.996840793263  956.2062470024186 -133.804784355146 -1317.529592399402  1420.879582973912 -131.4152310643593 -906.8216266059732  995.9302447821801 -173.1116959971229 -888.1614224837406  1397.211519722141 -166.7144777304781 -434.7956390607931  899.5066946978352 -190.7366935207501 -378.1568329741124  1263.700716552002 -181.1802741859483 95.28385309471307  679.3062426337119 -196.442228301249 174.1584095459214  966.8390223655318 -184.142320897669 650.0464768188748  352.9470311707369 -193.6274678074055 700.4018330509659  612.2105665154883 -173.7737918784219 1130.941619079874  -23.17444911806546 -181.3534175877938 1141.467136884093  1450.477449482268 -157.4232236278599 538.9269836384858  1356.489002036555 72.10121540155662 1258.592243901384  1394.224275688785 132.5502910061964 939.207167228712  1684.181606459662 128.4204233990735 424.7922654941629  224.0510073984739 -147.2539573169618 1494.352969097108  821.2423429750465 -131.7193131993674 1401.593122225806  955.0684727477088 126.8744099815503 1355.705136169282  941.9163776391088 171.1540694738769 969.4290211381381  1897.779040176853 -70.61668496032812 274.4189735457181  1701.376166657863 -137.1515908600427 32.67558007817666  1727.578061530557 -73.09690586740622 -768.900743051435  300.1782222392058 71.42356695515089 -1757.136001210683  1340.198592877814 69.98551358673309 -1275.099720343179  1381.054940991252 132.0319940135796 -956.4627075893363  436.4744029564737 -191.0065026566366 -785.0574921250095  -307.8655987007044 -194.5915003061338 663.8957795333281  409.5193139687013 -135.2474703373398 -1528.556682771904  1673.892475850977 129.9452160998993 -437.8608175899197  1279.878515584384 171.9942601060671 -537.3765712372078  905.8685383348828 168.6491760248122 -1040.07380402237  732.8303470890587 190.9163218460027 -590.9181204143708  320.5436829257424 184.7145425007092 -1025.605080256975  95.36559718256493 197.20286375337 -542.6339366595494  -330.8719894648383 186.6889857222363 -950.610085337973  -553.0807549181512 196.2954583250549 -408.4836989099766  -954.0443997962615 182.0951858816304 -724.6640785847779  -107.1409534728051 199.0137861726319 37.04593766945221  -661.7652361630524 -177.5734235072196 1048.302855250205  -924.8690910208338 -188.7915865788915 524.3145964590494  -1125.132118793062 186.709107729021 -196.5989780396205  -1451.657159410331 159.366100236377 -489.2418801818893  -1545.72555445191 159.527106085094 43.12911838585921  -1780.137800465011 112.7471623685658 -301.0272670291471  -1801.651701067402 107.4052966726152 279.4976446408047  -1579.410026757616 107.3652222830605 -855.3715512715263  -1479.292725374841 150.2621868541317 610.670923957548  -1863.015223907341 48.45562166544831 -541.9747582765012  -1657.979810108311 89.66230981449645 820.4444926582044  -1583.36052301568 31.10740783327298 -1087.630047638724  -1778.561799068818 -35.43334471461698 -776.4812343103342  -1247.28673008756 128.7881238027575 1123.754243502564  -277.078221584884 -107.1762556968414 1672.16569967947  -1232.132547282215 -159.8102511949019 846.055073123281  -1424.824644344096 -47.53474195763879 -1242.769301968605  -1555.345907699426 -107.9280082445468 -887.7347094883205  -1902.509159776341 31.19840684590494 466.461232919057  -685.085437238217 159.9651596154539 -1262.466941885264  -1358.452754486267 57.77886196611935 1285.726066502525  440.1672374981599 161.5116155699215 1339.190899561362  -1846.677357800847 -89.7899282298213 -315.2265272106016  -1153.243604868463 19.28931614619218 -1493.407892585969  -906.6749836104311 100.5090008779993 1492.885245421517  -1123.303557533854 -114.7591595208322 -1305.645766259701  -1198.930520031339 -159.6188215702239 -889.9686234063963  -1018.366183984032 173.4751595554512 859.6603319863377  -538.7882801338761 -197.4075623115606 125.9387943482084  -945.376778462066 17.81972344693995 1613.912372839682  -1398.125107230592 -25.59215962651307 1293.406345128853  -692.2709544480501 -158.9646242446418 -1266.90958189969  -710.3207892488451 -187.00380101043 -799.8021455155848  -586.4036236757596 -108.451339570768 -1599.978438538583  1065.169516115681 188.5007109375248 -54.53022759207493  -1402.683883719756 -168.3036828361006 336.6832266771479  -1651.272080947375 -124.1910466616953 579.4397895347688  376.1989427050799 189.0661885288092 899.0949086825279  -134.6127589322479 177.0671716670404 1188.570030160826  -45.53256476557311 145.7705607734061 1518.221548593412  -539.5141481508712 66.11111540170957 1716.64842817461  -912.669865148854 -135.7581845357713 1330.477777152938  481.7446814841889 157.849518277991 -1352.481845765524  -1165.842844600163 -181.310385534007 -419.4560632497632  -150.2384449870235 127.593314909799 -1606.678381997717  -328.6205696184618 57.33630948234145 -1775.530972789717  -236.0945490718637 195.0705318078084 664.5065324729638  -420.4859226547145 -41.33742387493535 1778.07131724426  -150.8482551481023 -183.121854895555 -1095.2211368989  -906.8155213938902 -65.538853659217 1579.808386854918  -1408.981686339599 -103.7143433629882 1094.943452641492  -1737.535472392151 -51.9675874626233 817.5110673410774  -1904.098223143167 -66.70906915766246 259.0060124694658  -1970.710073969158 -8.767451498552997 -160.2311943119739  -770.9600113242561 110.6591696399923 -1523.203135086143  -1172.603428883613 121.881816357555 -1232.753304919947  -181.2229191430436 -195.9443054127017 -640.7678830254505  -70.17875004788682 172.3002995767213 -1283.900281499936  839.4521342524552 191.1365720069912 506.9472010422704  1715.283501608338 -69.74612182047976 807.2174330594968  99.64648337456788 -74.45326505948616 -1770.327151850121  338.2028361431678 -198.1135948589194 -303.1179329085898  -621.0784146848266 155.044411842531 1335.512354486977  1901.099428919213 68.08600176998735 -279.5398019967659  1316.990093531014 170.7973971702879 490.5204284893482  1541.366852061481 160.1021161305323 -20.88452555419073  -1551.283019354386 -147.9177955370492 -476.9003917811887  -704.7558671589272 196.4931427112581 152.4093660907233  -1157.888215255309 182.9227666180699 352.493994757527  -111.8764856326849 -149.8023578954174 -1487.766255662709  -464.7596601964568 -29.98453193832738 -1779.174442620772  -975.2475098282605 -48.07862297908282 -1573.170116330562  494.5123844398319 198.164770030286 -100.462040429716  58.09227367982794 -199.1987930340431 219.9845727926649  1126.069260567519 -154.4038553049624 1026.958933530858  1904.716368159125 68.39068705105238 249.1770706180944  870.8724439048422 -70.84091787445745 1586.088661057142  -1708.294570840573 -135.7721687006751 46.02231675199597  -366.0637552228159 -159.1551571349527 1380.856598020275  979.7667625473787 123.9061018179204 -1357.311116206001  -1695.869435646995 21.81575550626747 938.9430829247673  463.3757338453561 -172.5339985046397 -1199.946563509862  491.9952169408692 122.1661489050909 1571.776072394523  304.7247928415858 197.4119406940924 414.0227869894173  -1268.457867934855 153.3062531815731 -886.8997869973247  1683.844965809173 -124.5064059995797 -487.2716843889153  -30.56553003118504 68.41857763339391 1782.953749977429  1524.121123995103 -120.7444853501807 848.2802061579274  -1929.135223462339 64.34897265137261 -41.76233628804172  -1084.467629524996 -189.0369363652999 18.36722978886585  -671.1261646025835 -195.7901340666196 -324.1021091203019  1801.392701494044 114.9974143886589 -12.3908711148412  -450.0772760388704 125.4987900318743 1570.790664500021  558.7655716131884 114.8371096611262 -1584.02161159604  -669.5094525013353 19.67029415157035 -1728.788746451756  -769.524199312042 190.2627269130885 617.166158859604  1708.265928643354 -116.739129895922 513.3496542482319  -146.53615965776 -199.4876485063361 -198.4665087756076  -1276.222880196438 69.60199639865073 -1335.706925654946  -871.5441513369237 59.13183284070203 -1609.809382230976  -582.0029641905685 182.2666804115152 1007.324401437441  -1444.350415180917 -169.6624290133041 -106.6742090701462  -0.6275908243101309 -0.04256499510029146 0.2914574091666461  -680.517382765792 -81.14850153897446 54.47970800268084  1017.593570976936 33.14703720628813 -8.654892771734042  -411.224037938566 84.60256764051594 433.3242929635688  762.7600489612589 -61.94187962324782 391.8797004212665  -494.074970730785 9.328065148855416 -865.2899863420278  -1045.372682678394 16.88402329265425 0.6514164804790992  202.6713506647411 94.57033644153043 -377.8274298983704  708.8373037748593 -49.27993296617625 -584.0232087583934  -549.4882790413121 -9.538795446487564 839.1250916797952  529.3601549259777 73.76287027687378 679.9488472742997  -196.3510931429584 -83.18496469151746 -740.706022114204  178.1104684049516 -113.5267595799284 3.96153888606438  417.7161538919997 33.07300715248653 -959.781
[...]
<PointData  Vectors="Coriolis"> 
<DataArray  type="Float64"  Name="Coriolis"  NumberOfComponents="3" format="ascii">-1.6258750085143523e-09 0.0000000000000000e+00 4.8774343668782123e-12  1.6244270094579393e-09 0.0000000000000000e+00 -1.0436695285425296e-11  1.5494930751851697e-09 0.0000000000000000e+00 9.2072199248763917e-10  1.3301611278764631e-09 0.0000000000000000e+00 1.7305280648777257e-09  9.5864256991318386e-10 0.0000000000000000e+00 2.3856216942017336e-09  5.0438422065412673e-10 0.0000000000000000e+00 2.8240672754958999e-09  -1.9274066876075869e-11 0.0000000000000000e+00 2.9792264937803702e-09  -5.3134026718447221e-10 0.0000000000000000e+00 2.8263823402254125e-09  -9.8111155124368054e-10 0.0000000000000000e+00 2.4193570254296658e-09  -1.3219180774961686e-09 0.0000000000000000e+00 1.7659752681085543e-09  -1.5434838736394754e-09 0.0000000000000000e+00 9.1343731278701469e-10  1.5223630582940067e-09 0.0000000000000000e+00 1.2257956066136726e-09  -1.5200853481395313e-09 0.0000000000000000e+00 1.2025278580502811e-09  2.5335446107814253e-10 0.0000000000000000e+00 2.9446423318552910e-09  -1.1735169034488706e-09 0.0000000000000000e+00 2.1698684845204051e-09  -7.5426164497204639e-10 0.0000000000000000e+00 2.6870598078297599e-09  7.3304133291410727e-10 0.0000000000000000e+00 2.6691731048228604e-09  1.4857947861554307e-09 0.0000000000000000e+00 1.3482398591734256e-09  -1.6319936272593369e-09 0.0000000000000000e+00 4.6421708455258169e-10  1.1759080013217741e-09 0.0000000000000000e+00 2.0972371185828151e-09  1.4239617983669913e-09 0.0000000000000000e+00 1.6420205778659195e-09  9.7328259132260879e-10 0.0000000000000000e+00 2.4392901952882901e-09  1.1557434953807886e-09 0.0000000000000000e+00 1.9776949399983784e-09  5.3336275575850505e-10 0.0000000000000000e+00 2.6996349988760601e-09  5.7397075041207260e-10 0.0000000000000000e+00 2.0385980565340173e-09  -1.4221590278309951e-10 0.0000000000000000e+00 2.6361894008736677e-09  -2.8715814821263992e-10 0.0000000000000000e+00 1.6310819689295447e-09  -9.3085144657918506e-10 0.0000000000000000e+00 2.0708209093117090e-09  -1.1212261933776012e-09 0.0000000000000000e+00 8.2023068363262901e-10  -1.4815101076501232e-09 0.0000000000000000e+00 1.2304582661194876e-09  -1.5959811442068814e-09 0.0000000000000000e+00 -3.8390360218302415e-11  -6.5771058943369224e-10 0.0000000000000000e+00 2.7010622289559024e-09  -1.1855324132271074e-09 0.0000000000000000e+00 2.1358231937256340e-09  -1.0287010780148693e-09 0.0000000000000000e+00 2.4246538074130850e-09  -4.6454569742328590e-10 0.0000000000000000e+00 2.8725566512933660e-09  -1.7052912630748314e-09 0.0000000000000000e+00 3.8945295703456571e-10  -1.5148527914622572e-09 0.0000000000000000e+00 1.4400115830610454e-09  -1.4375781891216547e-09 0.0000000000000000e+00 1.6333513765980509e-09  -1.2608056007531365e-09 0.0000000000000000e+00 1.8746014492884379e-09  -2.6861916098320402e-10 0.0000000000000000e+00 2.9524734129768426e-09  -4.4429050940032291e-11 0.0000000000000000e+00 2.9766295686053650e-09  7.1339947430038654e-10 0.0000000000000000e+00 2.6982126953193315e-09  1.6359609078362902e-09 0.0000000000000000e+00 4.7080247949130662e-10  1.1901027866476461e-09 0.0000000000000000e+00 2.0681705579048288e-09  1.0241529032042509e-09 0.0000000000000000e+00 2.3670935855228655e-09  1.2076888632585760e-09 0.0000000000000000e+00 9.8745260524983611e-10  -1.0736664143590274e-09 0.0000000000000000e+00 -7.3157439810734049e-10  1.6779526266845068e-09 0.0000000000000000e+00 7.2229438596722548e-10  4.5935015072970711e-10 0.0000000000000000e+00 2.8691335176980266e-09  6.8485937489294800e-10 0.0000000000000000e+00 2.5433091325913505e-09  1.3168647213686043e-09 0.0000000000000000e+00 1.7618250464024846e-09  8.9983044132421770e-10 0.0000000000000000e+00 1.6584785693760923e-09  1.4656950591556911e-09 0.0000000000000000e+00 6.8239086591225137e-10  9.1280392790221622e-10 0.0000000000000000e+00 2.2246995502533234e-10  1.4087182904772736e-09 0.0000000000000000e+00 -7.3726542555593141e-10  6.7757925019554014e-10 0.0000000000000000e+00 -1.3265035702928905e-09  1.0273410321539534e-09 0.0000000000000000e+00 -2.0131372583708683e-09  -7.1938909551429845e-11 0.0000000000000000e+00 -2.6973697516735343e-10  -1.4147034964096093e-09 0.0000000000000000e+00 -1.3545249964925161e-09  -7.7596705356600380e-10 0.0000000000000000e+00 -2.0315874663636645e-09  2.9009055344305668e-10 0.0000000000000000e+00 -2.4357251087626343e-09  6.0252350876004119e-10 0.0000000000000000e+00 -2.7107166358334179e-09  -4.1864953753219455e-11 0.0000000000000000e+00 -2.8768704350738637e-09  3.1900263689076835e-10 0.0000000000000000e+00 -2.9204401736207561e-09  -2.7525595040676833e-10 0.0000000000000000e+00 -2.9229166665670101e-09  8.7896749073387867e-10 0.0000000000000000e+00 -2.5738892784693662e-09  -7.0803790380323038e-10 0.0000000000000000e+00 -2.6669436567668488e-09  5.2024333386655155e-10 0.0000000000000000e+00 -2.8296786271457231e-09  -8.0542040258988618e-10 0.0000000000000000e+00 -2.6183555419458204e-09  1.0081564391238112e-09 0.0000000000000000e+00 -2.3811856766288923e-09  7.2410899395223417e-10 0.0000000000000000e+00 -2.6793060073592335e-09  -1.2109695237832918e-09 0.0000000000000000e+00 -2.1310198809605282e-09  -1.6688481969076960e-09 0.0000000000000000e+00 -4.5887713348246652e-10  -1.0347659268303405e-09 0.0000000000000000e+00 -2.3134352333047808e-09  1.1624496596198427e-09 0.0000000000000000e+00 -2.1656325002693702e-09  9.1236022248824292e-10 0.0000000000000000e+00 -2.5471395489026194e-09  -4.3020548835289721e-10 0.0000000000000000e+00 -2.8487740549979104e-09  1.5472772346505442e-09 0.0000000000000000e+00 -1.3108470651345084e-09  -1.1922875072168469e-09 0.0000000000000000e+00 -2.0802820689635444e-09  -1.6285818233167194e-09 0.0000000000000000e+00 8.3275438814104905e-10  3.2292394528769885e-10 0.0000000000000000e+00 -2.9215273361568433e-09  1.3643105095579057e-09 0.0000000000000000e+00 -1.7417773376530736e-09  -1.4863276109872492e-09 0.0000000000000000e+00 -1.4609930410677734e-09  1.3573036094640139e-09 0.0000000000000000e+00 -1.8716483382911167e-09  1.0947490733339264e-09 0.0000000000000000e+00 -2.2691123598335332e-09  -1.1278386829452471e-09 0.0000000000000000e+00 -2.0268110468045015e-09  -2.0559623267113993e-10 0.0000000000000000e+00 -1.3299342105748152e-09  -1.4554525027395576e-09 0.0000000000000000e+00 -1.4146019494703371e-09  -1.1675110878079434e-09 0.0000000000000000e+00 -2.1042553530662449e-09  1.5518308509187086e-09 0.0000000000000000e+00 -1.3170564593660113e-09  1.1685458028217283e-09 0.0000000000000000e+00 -1.5528998587743887e-09  1.6217222379392920e-09 0.0000000000000000e+00 -9.9563575026563579e-10  7.7279331273661899e-11 0.0000000000000000e+00 2.3698884871129247e-09  -4.1879259493477923e-10 0.0000000000000000e+00 -2.7367247193381939e-09  -6.1336055381933981e-10 0.0000000000000000e+00 -2.7698463273369908e-09  -1.3460724237924774e-09 0.0000000000000000e+00 8.3672560366355265e-10  -1.6307228186560301e-09 0.0000000000000000e+00 -2.8196289058182801e-10  -1.7141387995340503e-09 0.0000000000000000e+00 -8.1979648438404175e-11  -1.5878660704959377e-09 0.0000000000000000e+00 -8.4759106918231902e-10  -1.4657130014990571e-09 0.0000000000000000e+00 -1.5815033150004394e-09  1.6324436808292970e-09 0.0000000000000000e+00 9.0106233955687828e-10  5.8693877025565965e-10 0.0000000000000000e+00 -2.4409840991888754e-09  1.7012428611172593e-09 0.0000000000000000e+00 -2.7108724555464168e-10  1.6262965276083757e-09 0.0000000000000000e+00 -5.4025454727145332e-10  -1.0820296017644037e-09 0.0000000000000000e+00 -5.5597142937626421e-10  -1.5978253716906198e-09 0.0000000000000000e+00 -6.5738692221018262e-10  1.5526096857226366e-09 0.0000000000000000e+00 -3.2448760733439676e-10  -1.4803159697166118e-09 0.0000000000000000e+00 -1.3935838430804016e-09  -1.0941768000158213e-09 0.0000000000000000e+00 -2.2898596804326250e-09  -7.6459602697955384e-10 0.0000000000000000e+00 -2.6348588962555620e-09  -2.3832770337129249e-10 0.0000000000000000e+00 -2.9199395746414797e-09  1.5270487237044210e-10 0.0000000000000000e+00 -2.9410784845323974e-09  1.5674242380032404e-09 0.0000000000000000e+00 -1.2826922216418388e-09  1.3116916295733728e-09 0.0000000000000000e+00 -1.9835697565298216e-09  1.0495849503570326e-09 0.0000000000000000e+00 -4.3968987545843716e-10  1.6671583010162608e-09 0.0000000000000000e+00 -1.4172031776961639e-10  -7.7111749695120525e-10 0.0000000000000000e+00 1.8911528639324046e-09  -7.8707633495714051e-10 0.0000000000000000e+00 2.6732880473172727e-09  1.6561487262211168e-09 0.0000000000000000e+00 1.5343409840784363e-10  5.1686359345991719e-10 0.0000000000000000e+00 8.3859663037091953e-10  -1.5864496046110856e-09 0.0000000000000000e+00 -1.1509346362971374e-09  2.5773319500401815e-10 0.0000000000000000e+00 2.9453082506250358e-09  -6.3831590098285483e-10 0.0000000000000000e+00 2.6049766325950888e-09  1.4098713974772740e-11 0.0000000000000000e+00 2.8957685027020109e-09  5.5995957938366399e-10 0.0000000000000000e+00 -2.7925988989482433e-09  -2.4722607819433591e-10 0.0000000000000000e+00 -1.6854687475596939e-09  -5.0190266490679781e-10 0.0000000000000000e+00 -2.4470924663890610e-09  1.7164823763668514e-09 0.0000000000000000e+00 -2.2462777364789113e-10  1.5968137098405632e-09 0.0000000000000000e+00 -7.4054531190487668e-10  1.4548753348318570e-09 0.0000000000000000e+00 -1.4971613779956890e-09  1.6961041357116500e-10 0.0000000000000000e+00 1.2303780804306467e-09  -3.9365023377186855e-10 0.0000000000000000e+00 1.4840908728036452e-10  -1.2101471258860555e-09 0.0000000000000000e+00 2.0831182339752289e-09  -2.4844130726994086e-10 0.0000000000000000e+00 2.9533252632423050e-09  -1.4791042935182120e-09 0.0000000000000000e+00 1.3666826100798564e-09  -4.2922782784404417e-11 0.0000000000000000e+00 -2.9490132284304931e-09  -1.6579914154955147e-09 0.0000000000000000e+00 -6.9052809524280965e-10  1.4240929370339839e-09 0.0000000000000000e+00 1.6446984302775494e-09  -8.5713136308198457e-10 0.0000000000000000e+00 -2.5356298951682240e-09  1.5676713332431826e-09 0.0000000000000000e+00 9.2578170309233594e-10  -1.6374594099863307e-09 0.0000000000000000e+00 8.2020805149930229e-10  -7.1238295046532589e-10 0.0000000000000000e+00 7.5563056292781624e-10  1.0597240331697885e-09 0.0000000000000000e+00 -2.3432442752864865e-09  5.0247298039848853e-10 0.0000000000000000e+00 2.8492245722433214e-09  -1.6511169232733037e-09 0.0000000000000000e+00 -4.9674128723798920e-11  -9.0219197897142541e-10 0.0000000000000000e+00 2.5701027038363844e-09  4.0928887639665584e-11 0.0000000000000000e+00 -2.9632553996628186e-09  -2.1848395672714858e-11 0.0000000000000000e+00 -2.3911209176024541e-09  5.2770049161738042e-10 0.0000000000000000e+00 -1.6025992062252320e-09  3.1619721719281515e-12 0.0000000000000000e+00 2.9896734506694037e-09  -1.6505600081636170e-09 0.0000000000000000e+00 -7.7175669755793661e-10  1.6233112299474221e-09 0.0000000000000000e+00 9.4209598741075657e-10  1.5569982535937023e-09 0.0000000000000000e+00 -1.0326363281552471e-09  -9.4206662176123965e-10 0.0000000000000000e+00 -1.7298323259108368e-09  -5.4333742659195780e-10 0.0000000000000000e+00 2.8407092125365458e-09  3.5171832683036544e-10 0.0000000000000000e+00 -3.7530813293467439e-10  1.2754013092400535e-09 0.0000000000000000e+00 -1.9895086223553870e-09  1.5069489500121603e-09 0.0000000000000000e+00 -1.3545990841187611e-09  -1.4011905795004686e-09 0.0000000000000000e+00 -1.2243468589580879e-09  1.4189735699119956e-10 0.0000000000000000e+00 -2.7922506202378835e-09  -2.8289700389413414e-12 0.0000000000000000e+00 -9.6004669690310664e-12  -8.9735446962674167e-11 0.0000000000000000e+00 -1.6444316733482682e-09  8.1659594937706884e-12 0.0000000000000000e+00 2.3019776678941377e-09  -7.2180358193875094e-10 0.0000000000000000e+00 -1.0117756029913254e-09  -6.2294142333736310e-10 0.0000000000000000e+00 1.7844458743799699e-09  1.3061588241332547e-09 0.0000000000000000e+00 -1.1178617749149789e-09  2.0603256566262041e-12 0.0000000000000000e+00 -2.3466197394185565e-09  6.5261536405538631e-10 0.0000000000000000e+00 4.9622608896597347e-10  9.0409457306230340e-10 0.0000000000000000e+00 1.6303150868923466e-09  -1.2631499480062535e-09 0.0000000000000000e+00 -1.2368983236092544e-09  -1.0687507007980077e-09 0.0000000000000000e+00 1.2290513965926098e-09  1.1906538866241214e-09 0.0000000000000000e+00 -4.6811005788096625e-10  -1.0310773570605694e-11 0.0000000000000000e+00 4.6069600710711611e-10  1.4022763732460600e-09 0.0000000000000000e+00 9.1621956642806735e-10  -1.1837276841168020e-09 0.0000000000000000e+00 -3.9174011154225210e-10  -1.4794881784799818e-09 0.0000000000000000e+00 7.9850830919694068e-10  5.9397342141365870e-10 0.0000000000000000e+00 -1.6855267790720888e-09  7.9020922904268629e-10 0.0000000000000000e+00 -2.2386738346864538e-09  -9.5717322731166511e-10 0.0000000000000000e+00 2.2103990700255354e-09  -1.5656294255139095e-09 0.0000000000000000e+00 -3.0326395457374482e-10  -5.0232210859789181e-10 0.0000000000000000e+00 5.6438941400463820e-10  8.5600702605308892e-10 0.0000000000000000e+00 1.9834753885489232e-09  -9.4433803228632768e-11 0.0000000000000000e+00 2.0978619473910937e-09  -9.1646672402619742e-10 0.0000000000000000e+00 -2.1667967146052445e-09  1.3594727687823935e-10 0.0000000000000000e+00 2.6537578600708866e-09  1.4441442451484433e-09 0.0000000000000000e+00 -5.6346107438569025e-10  -5.7852484834697134e-10 0.0000000000000000e+00 -2.5205967950362864e-09  8.3143197033748729e-10 0.0000000000000000e+00 2.4028450246374975e-09  2.4701993755735466e-10 0.0000000000000000e+00 2.0644870527289988e-09  8.9313251071720520e-10 0.0000000000000000e+00 -2.3192961728168479e-09  1.6095029053302668e-09 0.0000000000000000e+00 5.3384635640546648e-10  5.5732014789126613e-10 0.0000000000000000e+00 -1.0391626629287349e-09  -5.2212400178958456e-10 0.0000000000000000e+00 -1.0085901625938114e-09  -9.7657422379203752e-10 0.0000000000000000e+00 1.1246535358572633e-09  -3.7930833912227643e-10 0.0000000000000000e+00 -2.2952733591657087e-09  9.9519868018011646e-10 0.0000000000000000e+00 9.4781201723003182e-10  2.5779732325281779e-10 0.0000000000000000e+00 -7.3633160411773567e-10  1.4505576974561070e-09 0.0000000000000000e+00 -1.4092606227327988e-09  -6.7478837683923258e-10 0.0000000000000000e+00 2.4609312609155644e-09  -2.9182929752176849e-10 0.0000000000000000e+00 4.0374880796829227e-10  5.8355843308674629e-10 0.0000000000000000e+00 1.1265113453938173e-09  </DataArray> 
</PointData> 
</Piece>
</UnstructuredGrid>
</VTKFile>