<?xml version="1.0"?>
<VTKFile type="UnstructuredGrid"  version="0.1"  >
<UnstructuredGrid>
<Piece  NumberOfPoints="201" NumberOfCells="657">
<Points>
<DataArray  type="Float64"  NumberOfComponents="3"  format="ascii">-16.81434405273107 37.61989040474313 101.3934255638503  -0.7768737994504824 -38.8572389023199 -102.297343612516  1529.885309554382 15.92238377847382 -143.3620367347617  2582.164494726425 54.63566828573899 -179.0192518628392  3158.539664704089 75.59163168679306 -190.0737670441329  3448.126334300598 83.1284568123825 -142.5158302681206  3538.013581418331 84.0465013489043 -59.52518364338652  3449.053673511146 84.5042823883702 22.29278621252686  3159.072789850777 88.2870200363645 71.96908665801602  2583.18554097957 92.83507737839921 75.99935423343447  1521.349763005207 79.94608022275497 81.07409471147679  1768.12033505949 -487.9281058902747 -324.0461392935176  1858.582936298755 489.3458783669986 216.0640388751619  3391.092415471097 -379.2542992929386 -203.1959803741418  2774.03173341242 -416.5112150314739 -69.06317134513931  3243.759588645649 556.5686607135317 163.9052789041238  3248.728902429701 552.8591581537812 -47.35592470416658  2054.407351890418 509.633264344631 -7.5561739506408  714.4829399287879 -416.8974121407985 -75.58501029051391  2754.930011475556 -398.9763817288773 -313.267920610238  1938.017740927974 -832.9159726424393 -419.0843014349723  2670.096383369842 -794.3991997599795 -378.9330927607151  1823.841013460014 -1133.973111377929 -447.5130021158716  2468.553907794965 -1056.837482200888 -373.8981203028555  1540.493921576771 -1322.394378599566 -420.992402879957  2188.863468601579 -1193.671393953566 -337.8022550965414  1120.952136762528 -1405.094492462471 -377.4564071735811  1715.148307030439 -1236.489243309776 -306.277672772235  553.451293865245 -1388.369826964177 -335.4321994126768  1153.632311871567 -1153.160095850257 -279.0823279660432  -155.6322173334839 -1268.142074764243 -285.2315910533583  2605.191958208631 -979.192274871643 -245.5569523610812  2809.978037816736 555.5299718820298 211.8739474324488  2720.565307539428 957.2793744301158 292.1060677046668  3082.454283715611 928.8847231921279 203.328060838356  424.8381121659798 -959.5970597092555 -229.3174928020413  1729.447077049311 -810.0926465736309 -196.1215393151094  2073.004649919047 912.4286207061757 335.6713821816451  1895.291323746761 1235.568024416865 387.7384698141276  3401.055373782448 -367.9659299363832 -120.8184683016206  3004.832314708466 -821.2316581645371 -257.5553162552289  3217.904917075031 -388.1512353482594 -273.4567361175907  795.1819242362872 466.2440663167235 47.09561623398963  2814.990845951949 524.1795445101154 -51.678031464434  2726.769593063627 947.8434352937894 74.41872066845855  719.361139162457 -1352.47313091742 -468.3045820701759  -697.3216434513866 -1447.052578436083 -318.9731862073387  856.5267283879296 -891.0885176245816 -419.2266327274931  3074.17510340019 938.7535028166085 89.6789096361486  2416.821005819642 1254.282676648901 191.5901167899522  1883.611273234253 1202.972744540898 192.2729881000654  1457.649520527779 1420.896082435535 281.2829450341256  740.411845985234 1322.342225693866 277.6228800661856  277.6544261741356 1466.1876331989 339.5206463245574  -557.3607153176829 1313.131719517009 312.4717808449855  -922.7723972371862 1412.319406657285 359.5814226486233  -1717.563063951079 1223.418656254724 301.4277876734122  -97.04995962325104 1499.631098517991 401.2748040073711  -1423.428423039334 -1278.345737961427 -236.9462614305881  -1791.875462617703 -1405.65902957812 -264.850309444139  -1949.23608969486 1262.580150412914 345.6760887851876  -2593.422069369721 1002.286439186917 255.397352136021  -2705.966882987825 999.2866778919546 309.4627350518384  -3176.184972508328 650.9490671339605 183.7476683535048  -3206.043493723406 616.1285898830697 254.913508158714  -2966.727623884637 614.1681661216842 130.4069549993561  -2663.73902775996 927.8867006808105 373.0686590681166  -3384.746090887122 228.1711561442519 54.457371875635  -3090.279133239796 500.1620897291009 305.4341530271021  -3113.040760833797 112.5298765524839 -17.32716309468068  -3328.283061151057 -315.032923555503 -104.5221106706073  -2432.791104794997 787.2134609174495 400.578057888699  -756.3839293884073 -708.7615072502367 -125.0707811490603  -2410.964179504857 -1157.97774506049 -154.4369880347551  -2923.57239907281 -398.7776624943488 -166.3508323556476  -2985.688728714073 -792.2289283818326 -240.2352578463435  -3436.196361481278 115.9890284477608 175.3127577064495  -1359.311350011259 1037.405547736345 251.6170037458195  -2782.382686441576 311.4990488492238 294.2927523555803  1012.644490026993 1131.026966236634 426.0262992629238  -3337.087279615464 -670.2659115346887 -125.4710728434334  -2542.423459562271 30.44335713635625 -41.84942903887507  -1956.495739724384 619.2396946037253 368.8519536895733  -2373.522617446425 -836.323494392419 -304.6309888665303  -2340.567592707253 -1157.348574906676 -345.2113454902197  -1860.341062693467 1143.374654505758 448.4902896439206  -1082.944882167564 -1509.285224142607 -352.7863248804702  -2191.353382788329 75.30538101864023 201.0865997060397  -2911.834613263293 -233.949957391834 141.5042380237091  -1508.225565999385 -1138.124696433755 -407.694920816523  -1436.881885914262 -1377.358001712389 -418.7352532413768  -1410.255773717804 -780.8945628210294 -324.9938513681406  2000.57641748071 1410.598436261072 296.3792322063529  -2592.501202225712 -1234.325234592602 -197.7981554326892  -3072.965344212662 -897.2755619740642 -69.04213676922171  818.6561345596386 1375.221864184532 446.8459210734176  -192.3713860875119 1235.818771466924 471.9625809600734  -29.73412727816898 985.6022817035447 424.8513546957474  -1282.383827747984 423.9249653342446 287.8822334968622  -2004.101995313882 -960.1452186566377 -121.9428996478109  1128.305778010181 1100.427141941925 209.3812390763188  -2183.599391255263 -1346.56959584816 -333.2256368619317  -274.1444953383146 822.4334154492424 188.9903302667916  -790.0740747137135 324.8061804551967 45.65394462409624  -349.2797682940136 1416.476644298591 459.4634297596012  -1098.038135083598 -275.5085014561413 29.17973287666796  -400.453616018248 -1303.73058480698 -466.4706722597591  -2120.766422512977 -473.4206056032475 21.41712021324706  -2839.758729028981 -755.713349007532 -18.18863147833737  -3281.084988979797 -416.2373472124885 85.75461815181514  -3426.298566749523 -517.5697733919982 -1.15807866816832  -3516.917565485923 -141.1119847087634 21.5261378983431  -1694.076592268369 663.5098045319264 155.8049987853567  -2365.486522266901 725.106548850496 163.1353530384932  -451.2163574098797 -1453.579921436574 -446.7527172502481  -57.02278630926519 1170.911266061753 267.3613222883167  1624.953403491998 1418.650127815353 380.604918287271  3219.733939554628 -362.3872568690541 -66.27720481718595  200.3068838860235 -515.9391344732734 -281.0076825921568  499.2527682333103 -1459.861103796718 -430.0768499990393  -1240.548994528785 1017.065379819671 455.2750510066527  3433.364390077664 522.6996997283726 -1.998667266461842  2459.95519730466 1247.284580589461 308.1234226826431  2804.942509343591 1161.351442929903 202.9928213016497  -2862.551250984643 -1071.236403271881 -252.5534705761215  -1181.461709080129 1406.774058611652 410.4539893933764  -2015.96531407827 1228.072754720695 401.0101849978141  -327.5409081111154 -1029.127433615496 -426.6167809848302  -1172.391478028218 -267.6081017132731 -155.8275543603781  -2243.270397424824 -401.822232680929 -182.1322651803446  992.6930881038527 1506.658275991017 357.4664192859105  -16.12961246795804 -1498.345439958663 -375.7726331470404  2151.627837186736 -966.889992196055 -227.9162130339541  3432.811476213741 528.1381020919098 79.19560266688011  1974.643483847027 -383.6814518901815 -70.36832573935762  -3097.317438576519 -982.0317965042955 -150.3695204571593  -900.8632972222587 -1095.734800619555 -221.0046653542345  2162.218818514452 870.4852171338018 89.29581691615685  -3236.546931435441 60.83020377382358 215.4461893250712  853.05371185327 -1165.30379715889 -472.718866245698  1187.595362197029 864.8896168125101 355.2079574803763  651.8725707124877 1488.789668454592 418.8250453762308  -2376.210515569631 961.7869077008197 228.18167441771  3030.602430059014 -729.4268285494804 -309.4937253579362  -43.51825476086565 484.2748339561601 263.1891924211055  2858.767362510917 -709.8395862382334 -158.0656734029073  -3423.2203129224 331.8638839889333 145.1209228558137  -2021.364293598077 -1416.893057290066 -301.9322992513748  -1317.635651835035 -1483.262121606656 -386.4857146165627  3247.806009071475 837.9446685425651 112.4902710172614  -973.3503758499514 817.1316860634649 402.9069547707479  1373.390437791638 782.4964340866907 114.4055781342316  -1631.664198971498 49.26065252914824 -34.64036294790707  -1339.892198304636 1323.557732969371 450.010996400427  3091.648142549263 -674.706659769442 -168.6065558470931  -384.150134418559 -1511.849004677742 -409.5064033072237  -2670.571077736581 364.2164398050415 60.60895207907276  -1992.258313870282 304.098333650492 48.86257726847938  -1058.179531990737 1239.888653746189 474.535190225864  -2641.971762946137 -1233.959510789369 -246.0650653818412  -6.092277101850962 -0.6832530698252623 -0.1769634557693028  -1550.708034213994 -722.9697157352455 -190.3997221876723  2238.794104094993 335.3868570050169 43.00098381455507  -873.9637753400469 684.5215609292953 282.4470735356584  1664.594624201725 -450.5194996224672 -175.3295529805984  -1182.783906621758 23.25583363904828 1.376157027824821  -2265.933849248822 70.70025841510034 88.66562649851008  527.8501933341527 803.2374409167683 234.8531010186733  1587.49932490251 -360.6562107432758 -203.1479878802071  -1316.939338310682 -103.8224298930481 47.62801599130552  1255.264514590883 647.9841120776686 220.4915098066958  -513.1366085614674 -706.1540531678393 -266.8287522892142  305.2361173509025 -939.7342197579661 -318.765222971169  1032.779465554847 282.9987549005644 19.32145644099782  -455.1277872409673 -
[...]
<PointData  Vectors="Self-Gravity"> 
<DataArray  type="Float64"  Name="Self-Gravity"  NumberOfComponents="3" format="ascii">-8.4965802414641894e-07 1.2810170605920044e-05 -3.7199498838405899e-05  1.2000357948919504e-06 -1.1935418586047236e-05 3.4721825911443093e-05  1.3497658219105515e-06 -1.2930291313529602e-05 3.8790794076537794e-05  8.9582809394487257e-07 -8.8538997425259975e-06 2.8411608837669878e-05  1.2397174997217562e-07 -4.3687531027803604e-06 1.6687670751329287e-05  -7.5028621232753252e-06 -7.2560447327897504e-06 3.0317229005226479e-05  -1.1719867660156806e-05 -2.0795151123659696e-07 1.8305390070962717e-06  -6.0500341039380105e-06 4.7438044510763833e-06 -1.9285297220370605e-05  -2.4357486921124773e-06 9.9164402847594223e-06 -3.5499503475370885e-05  -6.0494159908207246e-07 1.1073019304011662e-05 -3.4336961885009060e-05  -5.4797994305277806e-07 1.1138119585417610e-05 -3.4912700761287486e-05  3.9995522734669338e-07 -5.1666654733910798e-06 1.7068528464010308e-05  -1.0665709073277252e-06 1.2150042443363261e-05 -3.9253557083464365e-05  -1.5704141184625044e-05 4.5175257029788734e-06 1.9461307960275664e-05  -5.4601431367334374e-07 3.3381941256769384e-06 -9.4308884572566101e-06  -6.9716414829017231e-06 7.1398157994167225e-06 -4.2497511959222191e-05  -1.7525596370476816e-06 -1.0945157447097299e-05 3.3627091577320531e-05  1.8879175848912006e-06 -1.4566574927084956e-05 4.4619399069657874e-05  -6.1741566622921885e-07 1.0662013224097318e-05 -3.2657019440799457e-05  -2.5888886181105401e-07 -1.0934196310315540e-05 4.2342891386139891e-05  -3.9238568884402406e-08 -8.8320738230413684e-06 4.1185396731185528e-05  -2.7295646648603418e-06 -4.2181098045275888e-06 4.0544998090530184e-05  -8.3196652543846856e-07 -1.0784975825217524e-06 2.1637004779368798e-05  -4.8613242874016250e-06 8.0038435285812262e-06 1.9259178632247581e-05  -1.7986700298714775e-06 8.1329223801001565e-06 1.2391068605690016e-05  -2.9516542092760991e-06 1.2072852486061667e-05 -7.5756093695554100e-06  -1.2941005408890217e-06 9.9056315542428735e-06 -6.0492357546372063e-06  -7.4818939552861839e-07 6.0936804717181685e-06 -1.4540474598465240e-05  -4.3606775225644188e-07 6.6182213940538297e-06 -1.7626569231214265e-05  -5.3908089487195413e-07 9.8737289578812759e-06 -3.4004908149192526e-05  -7.4284321382202807e-07 7.7837732478897971e-06 -2.4736397051849412e-05  -1.8457873694974777e-06 9.8905363956445628e-06 -2.1611667773143842e-05  -1.0124601225702823e-06 7.5585608214790632e-06 -2.9573250202901586e-05  -3.1673005966670115e-06 4.3305898481479751e-06 -3.2982381952610033e-05  -9.3508616019733091e-06 -3.5660609387839464e-06 -2.9523261413000874e-05  -6.9236088791449756e-07 7.4096473572784882e-06 -2.4020747419106167e-05  -5.6519477347755950e-07 6.5451221711419715e-06 -2.1023967803467810e-05  -1.2753641126119236e-06 6.5373124942255698e-06 -2.6808768254474815e-05  -2.6542270526244316e-06 8.0052630360258812e-08 -3.1171682219296548e-05  -1.0714640080467905e-05 1.0489387911120090e-05 -1.8615743431687820e-05  -7.1763803899512124e-06 1.1995269990617316e-05 -4.5872956264116988e-06  -5.2158700228120871e-06 -7.3887138824631824e-06 4.4873074776356523e-05  1.2615962690449070e-06 -1.1035564381933991e-05 3.5397645741088835e-05  9.8626320949623471e-07 -8.1561792952000648e-06 2.5575338702003105e-05  4.2023870530198548e-07 -1.0017688527844466e-05 2.8739322238032085e-05  -2.8136087416123189e-07 1.8751011811404942e-06 2.3946781513399975e-05  -6.1944514525142587e-07 6.8229984894627913e-06 -1.7552421196159592e-05  8.4761425564795043e-07 -9.9821524519323549e-06 3.7907007831863760e-05  -2.3745761868396035e-06 -8.2159115038471324e-06 1.6278499910204296e-05  -2.8414018705848439e-07 -9.5554942732248653e-06 2.0094324185085444e-05  8.0410837997957472e-07 -8.2812503505647748e-06 2.3329997169426800e-05  4.4978852603100152e-07 -7.4737258196674119e-06 1.7019556451068435e-05  4.9187097048147973e-07 -4.3776396862433665e-06 1.0649450946822097e-05  5.0724047576261178e-07 -8.1118270971927173e-06 1.6267869791765188e-05  5.0887472835229522e-07 -6.4365920926355416e-06 2.0225489239981295e-05  1.0829353612710174e-06 -1.0754032368189091e-05 1.6743483454882846e-05  5.1719205131094576e-07 -6.1057186232623000e-06 1.3906308131161737e-05  5.4044717217748946e-07 -1.2608145544682101e-05 -3.6125440751505711e-07  -2.6059879864301630e-07 4.6443896075069145e-06 -1.4870982172783769e-05  -1.2029124065723250e-07 9.0556452231968627e-06 -1.7230249737512794e-05  1.8323287070606830e-06 -9.8204724879117235e-06 9.9604301145772158e-06  2.5479162851804179e-06 -9.1240613215140654e-06 1.7140528974604227e-05  6.2824495372282989e-06 -1.0618863103609276e-05 -4.1630360683175600e-06  6.5647752656379079e-06 -1.0580426301263645e-05 1.3722124635734332e-05  9.2093480029633021e-06 -6.5827266249491094e-06 -1.0341642725454974e-05  2.4520310970685669e-06 -1.5370442888440881e-05 4.8495311376859696e-05  5.0372156121852462e-06 -2.2887228651162523e-06 -3.0918185546949981e-05  -7.3072736871243430e-06 1.5993819310761062e-05 -8.6101475725046834e-05  5.4751555782960203e-06 4.8130950236044325e-06 -3.9366123198268267e-05  4.7758343935060255e-07 2.3806754070971483e-07 2.8041100748954192e-06  3.4198037370480452e-06 -5.7221762377843374e-06 1.5639253808795691e-05  5.8551460392761339e-07 6.5719806113130879e-06 -3.6123835476774711e-05  -8.3724314265718757e-07 8.7215292710881535e-06 -2.9451580092617598e-05  -3.5146177036389394e-07 6.3795725912045043e-06 -1.8873502297019886e-05  1.5426628473733883e-06 -7.5306268846348487e-06 2.4600648976764606e-05  4.9876422645835688e-06 -6.3012808301022075e-06 3.5297175700325062e-05  4.8773192344767177e-06 1.9789693505783461e-06 -1.4459681728473645e-05  6.0723459802583601e-07 -5.5645430558058755e-06 1.9735474343591658e-05  -1.8557169604118118e-07 3.8196505394504075e-06 -1.4075900693647781e-05  -1.5157145420285960e-06 7.6681015530836897e-06 -3.9663491045384275e-05  1.3986622476517933e-05 2.3632029562369386e-06 2.7111578306623714e-05  3.9086368834238308e-07 -6.6708868049171909e-06 1.7550500214137502e-05  -7.7127349841843494e-07 1.0436926093980690e-05 -3.6679420787147482e-05  8.2281959439662764e-07 -4.3235646222621357e-06 1.6983077459070523e-05  3.1417161371620568e-06 -2.8764460104820023e-06 3.5557048114845514e-05  2.5615057159578469e-06 1.7535041217337444e-07 -3.7160491821525817e-05  7.0369061589580338e-09 8.0648210014117856e-06 -6.7313031952707991e-06  -6.6081820992630769e-07 8.6636168947273870e-06 -2.6635307543204921e-05  -1.9445648021990934e-07 7.1950759047680926e-06 -2.4756569424367713e-05  1.7006776186783959e-06 -7.7862598887597247e-06 3.9408730524383152e-05  1.8959653986844109e-07 -2.0009064253364691e-06 5.6986640974344312e-06  9.2650877122386434e-07 -1.0084160937080643e-05 3.2181034416257241e-05  -2.4309801649230607e-06 -1.4309861235818731e-05 2.3809386275910596e-06  1.4212531833049807e-06 8.8874030553750166e-06 -1.4139479561181255e-05  2.3359555156382066e-06 1.1172153977222031e-05 -2.6575297862457659e-05  -1.1643110252948762e-06 1.2527773716823925e-06 -3.3468491546196967e-05  -7.5837120244484365e-07 5.5274793527400667e-06 -3.8316797494457459e-05  -6.9677696962269208e-07 7.3506649407163087e-06 -2.7417283084066427e-05  -5.6805570105892389e-07 7.6288619397546539e-06 -2.2760230906621754e-05  -5.3855280260237353e-07 6.0741297916954041e-06 -1.8438620414383651e-05  7.1599195088021824e-07 -5.8276845461986298e-06 1.8028887796957007e-05  3.7685669251925119e-06 5.1012534652596934e-06 2.5683389488508436e-05  9.0067312147626007e-07 -1.0803978001748412e-05 3.6520569151422446e-05  1.0190136303624009e-06 -1.2814166067454450e-05 3.9156382231007895e-05  -5.9625909559425062e-08 -5.2985477595042043e-06 -3.0076437284009758e-05  -1.0189518027967276e-06 1.0464281306559091e-05 -3.2364582732238850e-05  8.3187400671889271e-07 -3.1776465733819218e-06 3.3216496975938906e-05  -1.0306208544573262e-06 1.0732940743138123e-05 -3.2991558775105907e-05  -5.9229553008858939e-07 6.7706048256616581e-06 -2.2122780106283024e-05  1.7783585196018935e-06 5.5701196239908752e-06 -2.0712271472593545e-05  1.0197426004875399e-05 6.3905818867813261e-06 -1.0957896317499537e-05  -1.3386280550436482e-06 -1.5449127040184862e-06 1.2792617397347286e-05  5.4996954044259501e-07 -1.0046660854043912e-05 3.2857295327834454e-05  5.6530974997036763e-07 -4.2062097317399395e-06 9.8316574643587694e-06  4.9282184239793396e-07 4.1664921125874360e-06 2.8604741168181969e-05  4.2382912940478261e-07 -8.2470595991515103e-06 2.7410904308208991e-05  -2.6255233916648628e-06 -5.9344542439279142e-06 -2.6877649364593981e-05  -2.3660523444276318e-06 9.0622247568498271e-06 -2.7514754899432923e-05  9.3587191249671587e-07 -9.8852567903029119e-06 2.9649163869351963e-05  -6.3535138298212794e-07 8.4156697538376457e-06 1.2147868020814434e-05  -2.4673710873115152e-07 8.1389507294366300e-06 -3.5889629171492759e-05  -1.0627623634705346e-05 -9.7221990349089845e-06 1.9155646176211018e-05  -4.3586008617717882e-06 -4.2779162534972165e-06 -2.8661662146541548e-05  -5.4542059190885668e-06 -1.1658581279834551e-05 6.6490740330156209e-07  8.0694174065194066e-06 4.8952579859404530e-06 2.9151731826258535e-05  1.7938715663422509e-06 -1.1567400154567701e-05 -7.5980872498538498e-06  3.3544329076306534e-06 -9.3961717935809134e-06 -1.8112828745139190e-05  7.7947169245483851e-07 -7.4089341521218657e-06 2.9809763941246852e-05  7.9983228457877863e-07 -1.0268791401768553e-05 3.2041779138537203e-05  9.2431433600596777e-07 -7.7634146184082762e-06 2.2801159204924279e-05  -3.6492926641493962e-09 -8.1516231319595115e-06 5.6073411207689752e-06  -5.1602623067050840e-07 8.8409986935753378e-06 -9.4613172338298997e-06  -4.4232612743824182e-07 9.3947635344540345e-06 -2.7393120233955648e-05  -1.3899766375909597e-05 -7.1673006190832726e-07 -2.0457877859718970e-05  -5.9363013199899876e-07 1.4598382966963439e-05 -4.5339337647636088e-05  6.6628985182138522e-06 8.1464084076682388e-06 -3.7595137609650654e-06  -1.4554599777104068e-06 1.1573075262822761e-05 -3.8459007958313932e-05  4.6500570407698485e-07 -4.8533573741747596e-06 1.4225118380828464e-05  9.8694251566496003e-07 5.9584565912855200e-06 -2.2713162347046557e-05  2.7617003647292019e-07 -2.0464391237978467e-06 5.2731979032521273e-06  -6.7766400332214967e-07 7.4394552417289339e-06 -2.3188872418730671e-05  -6.4351231661155404e-07 -9.1520363975834113e-06 -1.8068351827648314e-05  4.7196606744913762e-07 -7.4322520424966801e-06 2.4910500991480479e-05  -7.5851129517912953e-06 3.9285762409388295e-06 2.6908114029257527e-05  -1.1103341308418327e-06 1.0779569089297653e-05 -3.2367387312331794e-05  -8.0385437426540181e-07 6.3139112841360560e-06 -1.8722429226980040e-05  3.0003109312145097e-06 -5.8908519555889743e-06 2.8936647593309129e-05  1.7325849449888368e-06 1.1295596779289231e-05 -2.6897874512570973e-06  1.0861133511371278e-06 6.4108327747843519e-06 1.1515772294092295e-05  -7.1112773498133616e-06 -6.9970080212630523e-06 -9.3406761507906208e-07  -4.2484917886484253e-07 6.3528052151412770e-06 -1.9862430966998193e-05  1.2511127474751329e-06 -1.1439191710454440e-05 3.6053841176681589e-05  6.5301821080091383e-07 -9.1864709750069511e-06 2.6403196578735404e-05  1.4018991525633315e-06 -5.5951528049190474e-06 -1.9890114457270648e-05  -4.2026770781430271e-06 1.0928784042613542e-05 -2.0736808040390241e-05  1.2569589519842641e-08 9.8665898548118654e-06 6.3408774403516034e-06  6.6470420662133782e-07 -4.4159185190568125e-06 1.2246979842714674e-05  6.2669291511091885e-07 -8.9640442565841026e-06 2.5491275345624190e-05  3.1671378277003071e-07 2.0612547823065609e-06 -3.8654238908331770e-05  6.3384281785722721e-06 1.3167973034873433e-05 7.2288079204454979e-06  -1.4398069874223342e-08 1.6010918797480441e-07 7.3029691569218228e-08  1.5023614254518569e-06 3.8733019812124411e-06 -3.1411582038306894e-07  -4.2453312598555183e-06 -6.6748003181296078e-07 -2.9550323121642308e-06  4.6396491904164071e-07 5.9890191251032724e-07 -1.8186985042849197e-05  -9.8012308770053282e-07 5.0393404389368486e-06 -1.3015815608725894e-05  7.1248171479582060e-07 -6.7429971968284940e-06 2.0888244362749068e-05  1.2055731836616998e-06 -8.4374865940317103e-07 9.9679760550653776e-06  4.5512103006210900e-07 -5.8253115397101884e-06 1.5665543156379367e-05  -7.5553003768993715e-07 -3.3905548050090582e-06 1.7004595135969299e-05  -4.2308541531003820e-07 6.3746945874167589e-06 -2.0983530191258249e-05  -1.5842519228330416e-06 4.8720204673554429e-06 -2.6501976891462352e-05  5.7916247200667126e-07 -2.2475103452347207e-06 1.3400170094558722e-05  -2.6146116400955644e-07 2.9661305077667258e-06 1.1009114300307993e-06  9.9792074229215550e-07 -8.7636162417415555e-06 2.8180325759162929e-05  -5.6833413848495133e-07 6.1128434925894841e-06 -1.9118969333434807e-05  -6.5141625344615026e-07 8.6181382839848094e-06 -2.7161026065847898e-05  5.2340106511503977e-07 -4.0663756769132125e-06 9.4283803135704295e-06  4.1441055881688054e-06 -5.3913890416455239e-07 1.2952922228517571e-05  -1.8648027261311839e-06 6.1422146990845257e-06 -2.1680194032199951e-05  -7.0496942136966504e-07 7.2733944270980601e-06 -2.6760495286478153e-05  -7.4081017420046350e-07 -4.8175116596708841e-06 -1.5459781898632794e-05  4.1353965252363094e-07 -7.8466855702485361e-06 2.3323136324010240e-05  -1.7764246455370394e-06 -6.6488861342730223e-06 1.4505102985093334e-06  1.9763672568707965e-06 4.0685342435772901e-06 -2.3887133953908987e-05  -8.3310840516333549e-06 4.2983915689705288e-06 4.3799364653780298e-06  6.5336269674803275e-07 -7.1154144130627619e-06 2.3261547325047948e-05  2.9794525624708636e-06 7.7940896184960046e-06 -1.9952629962315624e-05  -2.5090926866118481e-06 -8.0745600357926083e-06 2.7367283561512308e-05  -3.3382913371496814e-06 7.1435584647633535e-06 7.5432774717532668e-06  1.2912921284950084e-06 -4.2990436237768074e-06 1.7328913467469355e-07  6.7464891961094355e-07 -7.7270157698311627e-06 2.6362120639619967e-05  1.2436963512569816e-06 4.0697191060444309e-06 1.6598695553166725e-05  -3.0873773779155652e-07 8.6909474130796287e-06 -1.7792780067062328e-05  -6.1250944358042024e-07 7.8014330566512523e-06 -2.0661099838612063e-05  4.2391809714865261e-06 -8.8049923858872088e-06 -4.7895497170091262e-06  -1.7743018434094921e-07 -1.4834128216569732e-06 2.6230774105344859e-05  8.1137638707997587e-07 -8.1244936115928118e-06 6.2228006922000229e-06  1.2919462739149945e-06 -8.3794750261371531e-06 3.1705610701145892e-05  -6.6853932307818781e-06 2.0473912430489363e-07 -2.7883439731336996e-05  -3.7528084608933091e-07 2.7571448414100497e-06 -1.3010785023141733e-05  4.2844444955274479e-08 -4.5101827226582389e-06 1.2101629532527419e-05  </DataArray> 
</PointData> 
</Piece>
</UnstructuredGrid>
</VTKFile>