<?xml version="1.0"?>
<VTKFile type="UnstructuredGrid"  version="0.1"  >
<UnstructuredGrid>
<Piece  NumberOfPoints="201" NumberOfCells="657">
<Points>
<DataArray  type="Float64"  NumberOfComponents="3"  format="ascii">-0.005329979725098639 -0.01450673681183471 618.7838100214033  -0.0022092830350575 0.01237052123757192 -618.7875731886288  1159.804039937335 0.01277542564727385 -588.5655234601772  2205.91185046393 0.007433578888417984 -500.7979513105258  3035.880293011608 0.001853264031675912 -363.992038811156  3568.619531056348 -0.000604294893508031 -191.4081623561819  3752.165975643019 -0.002846359521461346 0.002163506384018094  3568.621032199971 -0.004284040726299019 191.408145074363  3035.880059964377 -0.004528311757609923 363.988239242217  2205.910511423198 -0.00687430361119604 500.8041756591188  1159.804757716792 -0.008344911253914218 588.5609990741998  1469.292241837821 -1091.425860200145 -537.3148935146044  1459.74729476427 847.7874521093212 550.8308294220881  3571.509553716899 -971.487948888802 -91.31565826745837  2571.784203660773 -1060.164199122255 413.5345071442017  3248.623316362838 982.6055304162685 259.8672405499204  3235.127280319989 982.5943096754351 -265.5266280389177  1640.632998025323 976.9245588654052 -531.7660249915223  565.3527463928741 -976.9490815139667 589.3260317725184  2555.128114011111 -976.8741608137161 -420.9372940620108  1778.573641089461 -1916.658215834576 -434.3655522668542  2642.429168054106 -1878.557600466758 -299.019272726937  1811.842540063675 -2685.326406799756 -286.686199214332  2552.770611404828 -2520.105851021267 -140.6237847473242  1601.770944187755 -3196.936316537481 -118.8741731849276  2280.719924661526 -2869.067980684857 32.02495111856441  1197.970642781133 -3415.555731628857 56.86558961910325  1737.715223354623 -2967.418193718051 210.4576236220943  625.9723959247698 -3325.194031777129 223.9054214043331  1112.145480075864 -2712.460639106509 368.4586535213094  -43.21443928009118 -2913.626691344008 369.2903113753694  2664.929877844173 -2331.155719100292 177.4949335267216  2555.134469149155 976.8722447029645 420.9400765748843  2588.765550186786 1890.954199928142 309.2892004262708  3134.88870133305 1811.950692255149 139.5501216063815  416.0576242773869 -2165.033165640973 492.9009514549178  1523.565174637422 -1898.528831197071 464.6508380023507  1778.404681885043 1807.357158383895 447.8865964269315  1713.484291000829 2643.848599236344 313.0633135664743  3578.351471728563 -947.8149214552737 92.319709878704  3154.92716825507 -1958.629106827128 11.66659831299727  3255.822279200553 -983.4823643096058 -257.3087102398027  565.3518335179391 976.9503592129955 -589.3208708800587  2529.711555762297 952.3813295007327 -427.9727725364221  2568.961726724625 1880.788972246797 -317.7572929819306  777.3521904524616 -3225.989764604549 -248.1867178970792  -543.851467234099 -3364.68993069105 212.0883161767623  758.8051333692662 -1965.905679151567 -503.0952795866543  3113.474484815108 1833.561605011649 -146.2099966380325  2328.252288750273 2648.817019052136 -176.2337045177619  1653.287271137238 2578.020084710998 -340.0626540032834  1305.183620625224 3210.461766856075 -190.2095196069335  576.6507554815403 3014.751013500803 -331.2139241566602  168.7892812770869 3475.675944972209 -172.9065398619935  -591.1331661630359 3101.822968821908 -305.9131765266118  -975.3561318648141 3413.490829797443 -130.8126626184637  -1719.006603098302 2915.344571436056 -234.7393528928036  -187.6008947061788 3614.989217839378 9.491761300237313  -1198.452234879736 -2800.91680091437 340.568111305294  -1655.284345872619 -3097.332905722616 169.4987449083609  -2018.263110782655 3029.558520511275 -64.61077989815865  -2666.105412489268 2369.850923259863 -161.1599271335741  -2839.872628809756 2364.562147428169 13.05950366986637  -3331.346635954816 1560.110335851338 -100.7620073309075  -3377.00373210213 1480.850717992115 92.45981068443491  -2959.664192657538 1478.751208487529 -285.3789977212864  -2731.017488350237 2188.096847767062 199.4435899978315  -3524.416538277979 646.75490750299 -181.835124900211  -3119.852059523368 1217.377752884906 273.2424600541048  -3000.282922492641 415.2116328786417 -365.3574864560611  -3368.942656510688 -469.7262465169482 -260.3612744775581  -2321.043375708678 1835.098765305941 370.6411556100118  -518.4065824093253 -1500.157711220589 557.8777486661968  -2260.732118763436 -2395.356637779018 277.8324845857836  -2696.145526877335 -636.3337095612499 -416.2903669997095  -2912.626608261397 -1493.485642696777 -294.4060050600794  -3605.290630056233 410.4558091699616 156.3924350082554  -1254.486319573678 2414.551818949826 -413.8778294387367  -2567.338848816486 783.6294809316821 430.7278225716428  807.0561681051111 2439.804037407565 435.9721827038493  -3473.694729172393 -1223.420060181224 -104.3385072119967  -2184.528670722993 254.1745708447392 -501.6466369343693  -1701.92734070199 1396.382532720932 496.3806898344678  -2099.060402032389 -1606.697589209977 -432.4116717500199  -2197.714108582596 -2392.154129488102 -289.3102139812347  -1852.146377991645 2693.743980131545 277.2578967599191  -945.6324468562491 -3495.539696954836 41.71981327971793  -1792.465124841588 235.1112893438091 542.1295273442333  -2648.317103756558 -339.6728512614484 435.0275498213546  -1268.619146003968 -2399.083036223711 -412.1951438399082  -1272.711105108602 -3058.308628442612 -254.5564497940024  -1093.280658565381 -1519.260768503601 -530.9869767265354  1902.390243295649 3118.669847263034 -19.12360447052005  -2558.430748000102 -2569.211980236201 111.1825034795784  -3080.654798310431 -1735.178598275186 193.0813672038454  671.9702156391895 3141.073380560787 285.3807456769713  -242.5895131856868 2833.001232544235 381.6189974092271  -84.04658661339384 2134.799980804221 498.2410732561716  -1016.701174603369 901.9874710161306 574.7495093247235  -1695.338679554883 -1959.034780642099 440.4550171375128  884.8631728417056 2385.273623234523 -443.8744668432204  -2103.074608308453 -2892.128788758046 -133.5956506255758  -277.910826719587 1829.933476452053 -533.4459785279512  -615.8727390532695 784.6475259554246 -596.1532656032805  -417.5123251918865 3381.502287712331 208.2426630766015  -792.9758249074157 -555.3788949379888 597.8077441690302  -271.157768608313 -2966.601447524306 -350.2375266901022  -1713.268959080113 -892.4738928078834 529.8121893713649  -2640.928183801612 -1436.696694613587 365.7879959947819  -3287.666082603842 -690.5384989552649 274.575584566769  -3596.991246500742 -896.4295107033953 87.39364492355823  -3736.023834964175 -116.5956988578777 -53.75192070780174  -1441.384531258303 1554.768259279644 -507.0651284890145  -2185.968989770177 1719.69748825293 -409.5079096666119  -319.0911260565201 -3407.211706106205 -200.6452538902357  -127.6563482625156 2674.887884933714 -418.4391593108219  1496.20611886578 3182.571047084411 159.9345919637033  3234.054638392579 -940.0350538031945 270.3332093471111  187.525648365564 -1025.247116212068 -591.8906971924558  593.0782901008133 -3530.927952034218 -93.44652489053418  -1142.720935647394 2312.51668221486 435.913635718432  3586.774985050959 910.8502554778795 -94.26860791409129  2397.281539006035 2624.749276951677 157.8668415675214  2828.000527485183 2378.874607228387 -8.326894737840652  -2864.728362092288 -2151.493137518412 -155.4178346136158  -1243.136296953762 3404.050549900039 46.37862534703274  -2085.64451950063 2935.672444196533 111.6883368798337  -203.5334647915404 -2213.366712429045 -487.1510812406441  -874.5952128651932 -404.0019278663979 -597.50320934966  -1843.676892603295 -648.3821511507351 -527.1501628011213  866.7965563903779 3517.362314586004 -33.51213820689843  101.5672690466377 -3596.409994804024 70.72975163934848  2072.063125216159 -2287.345502538451 338.2528996818979  3593.112807058742 922.502975044352 82.75276764495095  1641.552718423321 -969.8913865016135 532.0606899184116  -3173.534843815485 -1929.36943013999 16.30937359348343  -671.7139092621563 -2388.578178112682 453.4640451711894  1828.421815632008 1752.210039115314 -451.2053157364674  -3215.047799384569 288.5611536988964 315.3470952939381  842.3985254428883 -2695.782934897613 -387.486563722496  919.2556170214998 1738.519379246502 520.0757843129039  534.5102440874713 3501.602888247135 128.2031455042253  -2333.741438174986 2269.451054740247 -291.9689556968669  3137.972896498074 -1744.933304145942 -160.9204203783361  -57.436342058289 941.6556731667398 596.7068587061332  2842.335456185094 -1698.301022580711 282.204587907339  -3643.045817434016 862.7773430111954 -14.54609095408949  -1939.393148678487 -3098.881421010066 7.624895860558886  -1184.378604578493 -3382.326232150134 -100.7795987648197  3366.11344680089 1599.213959474588 -5.146273862793776  -837.6631629598274 1783.633729530928 519.3360028170597  1042.374246717593 1619.780304717358 -527.3790880148279  -1265.331274524236 265.9826552589815 -581.0708690067091  -1371.838094031221 3167.33340494581 194.9413156329942  3191.430971279339 -1622.921644093181 171.2151785138123  -255.5793451444751 -3593.415729246697 -60.23596813619602  -2406.718848723409 941.1770781641045 -447.5724224291181  -1644.947731806849 799.8815430610581 -539.8629003858628  -1049.291366257264 2912.410412844061 322.7606304931072  -2638.324313617697 -2566.124483957429 -33.28181577349096  0.000843381129041066 0.0005961587198937798 -0.0009111004401672709  -1196.752633928467 -1416.612451216254 18.18684709081722  1809.64647149013 552.4535246086017 -3.236890933239696  -720.9269920839126 1489.006650753942 135.232998095776  1348.883559959231 -1055.546845817931 124.8354373793197  -878.8368817366701 154.5170651910173 -275.6640973384307  -1861.244267996739 281.1755371215398 0.0234401536177581  355.594287733336 1684.262879316784 -119.6538911702584  1257.129085549039 -829.9863896051747 -184.7762938698467  -977.8904927086488 -157.7135963491019 267.3789777831298  937.6915986677936 1253.22016667563 214.5690364526559  -346.2601981956027 -1430.164366492442 -233.0130832857832  309.7011217535762 -2065.483747176102 2.626350742633725  7
[...]
<PointData  Vectors="Forcing"> 
<DataArray  type="Float64"  Name="Forcing"  NumberOfComponents="3" format="ascii">-3.8302022788179579e-06 -7.6892706680648896e-06 -1.9736708247836487e-04  -2.5004133271438715e-06 6.0544332286343445e-06 1.9666975617364530e-04  1.9267186055963212e-05 6.7517152257964369e-06 1.8452494095827482e-04  3.3966210016598377e-05 6.8172474928316267e-06 1.6714294476822579e-04  5.1685767345458453e-05 3.8214570819013458e-06 8.9325798324762934e-05  5.8336726099179797e-05 4.2742014811894858e-06 5.7052740607222700e-05  5.8728251605905887e-05 -8.5263536228513485e-07 1.2386829092778088e-05  5.4572614357273074e-05 -3.9088761103470674e-06 -5.0075647087275795e-05  5.1355936024831414e-05 -3.4472804610906187e-06 -9.6248700324537298e-05  3.3653467406599893e-05 -4.6265163487978653e-06 -1.6320100209794372e-04  1.7816243552870641e-05 -3.1588875433699168e-06 -1.7812534849532370e-04  2.5794670182035031e-05 -5.7247172052742024e-06 1.4178222267540415e-04  2.2660187607294246e-05 1.2616617781808756e-06 -1.8279015148204916e-04  5.2178548234708195e-05 -6.4849561228215674e-06 3.4262873684670500e-05  4.1511846734610598e-05 -1.4048944203900055e-05 -1.2770505825761939e-04  5.4745921061966929e-05 7.1490547349735833e-06 -9.1937137658365051e-05  5.3602804983291009e-05 1.1868652723656148e-05 7.7290589754264711e-05  2.7430198582236528e-05 1.5543940838695512e-05 1.4744455617858183e-04  9.3719114245586656e-06 -1.6526649700969321e-05 -1.4172607103411311e-04  3.9223892222404378e-05 -2.1863681242700671e-06 1.5156833640531982e-04  2.7689023929572268e-05 -1.2016535896851302e-05 1.5830399577542307e-04  3.9427659172659931e-05 -1.0219964997524351e-05 1.1591749992087657e-04  2.8648713171915326e-05 -2.0762886636210752e-05 1.0433499553087691e-04  3.8438296624509393e-05 -1.9193258833803573e-05 6.1739447993436645e-05  2.6574615556921926e-05 -2.9727060874164333e-05 6.9125526005565520e-05  3.3664696513481773e-05 -2.2075770835402413e-05 9.4320844266422372e-06  1.6596511084540583e-05 -3.0246849244125674e-05 1.4319963704299626e-05  3.2065361358002093e-05 -3.6358783931717230e-05 -1.6985820470566498e-05  1.0656103818531281e-05 -3.3774849611082739e-05 -3.5272707736771000e-05  1.8520938654236652e-05 -3.0743947020034319e-05 -6.4917465094418262e-05  -6.3067729488542163e-08 -2.8776705297018919e-05 -8.0458224659619529e-05  4.1338699846561728e-05 -1.9561593937034389e-05 -3.4144378235164669e-05  3.5725232131978754e-05 1.9906021995352851e-06 -1.5939338048906988e-04  4.0619920615023700e-05 1.2266846739748386e-05 -1.1041215613228158e-04  5.2988507226352359e-05 1.8235874535368924e-05 -6.8977018077845265e-05  7.3600705926524357e-06 -2.4677535682706842e-05 -1.4108006460934115e-04  2.3714523566759968e-05 -2.1038796425668593e-05 -1.3703133174199653e-04  2.4255013431672787e-05 8.6232506566347951e-06 -1.6695193406597223e-04  2.4308249626803218e-05 1.8911615919956787e-05 -1.1742329443367409e-04  4.9361008722633432e-05 -1.0161630487352993e-05 -2.5009954269731083e-05  4.6448789014861496e-05 -1.5358812228163793e-05 1.2655268647160349e-05  5.0134680306982180e-05 -6.9146671328638752e-06 1.0174765965109430e-04  1.0225685578161507e-05 1.3214867503258079e-05 1.8888722515678446e-04  3.7527062707523244e-05 1.2357536163468038e-05 1.3503003877757437e-04  4.0057787217538626e-05 1.9729302356251060e-05 7.5076293312017385e-05  1.2343227467712177e-05 -3.2987081326811755e-05 1.0331985011741736e-04  -9.5501189111118430e-06 -2.7591776111968177e-05 -4.3709094410639921e-05  1.1915436709922331e-05 -1.3493243544600663e-05 1.6832752799831772e-04  4.7698756330052281e-05 1.8280674422007466e-05 3.3819338235371795e-05  3.3590729034179680e-05 2.5537825689856104e-05 2.7383749284175926e-05  2.5406168623826362e-05 2.4509551128552506e-05 7.7573836181258387e-05  1.6591999487157115e-05 2.9910788109579479e-05 2.8103458439932915e-05  9.4452142304609299e-06 2.7305454711488643e-05 8.7984530455790597e-05  2.5233838792804170e-06 3.2499697220972012e-05 2.3893605854148923e-05  -8.2937353039314531e-06 2.8691488127112217e-05 6.0065230171364853e-05  -1.5205918541415815e-05 3.1488693771557822e-05 -2.0263781460714937e-06  -2.7898053809986909e-05 2.6843118359510517e-05 4.5670199680112324e-05  -2.7382215198524604e-06 3.4233927427649301e-05 -4.5573048391399773e-05  -1.8034761065619238e-05 -2.7715624655757510e-05 -7.2819511812671463e-05  -3.0115477976818229e-05 -3.4587179586105534e-05 -1.1813733485988356e-05  -3.0480431975652798e-05 2.6384796889419398e-05 -1.1461031587491197e-05  -3.9961961080751094e-05 2.1921283660026673e-05 2.8421561216269181e-05  -4.8687679193264906e-05 2.5052587662946937e-05 -3.5535900006364693e-05  -4.8996178554269369e-05 1.1813836003973407e-05 1.4028296889429287e-05  -5.3436109547848956e-05 1.2639302180971306e-05 -4.9097017479870762e-05  -5.1054951389105588e-05 2.0670386789990726e-05 5.7748596818199316e-05  -4.0149101916372624e-05 1.9177243537863568e-05 -8.7773422151056450e-05  -5.7832815697647487e-05 9.3494043892522087e-06 4.8030114377610369e-05  -5.4893901192583460e-05 1.1230023437783309e-05 -8.2456074481306998e-05  -4.5048849158052508e-05 9.3596928693251122e-06 1.0063582092372809e-04  -5.2395413159234549e-05 -2.1956386649703799e-06 7.7986557023742515e-05  -3.1985829185628267e-05 8.1338323896103419e-06 -1.4998491574010802e-04  -6.0654658273079537e-06 -1.8157720422571573e-05 -1.5979281462633101e-04  -3.5506117504548093e-05 -2.2547525478060705e-05 -6.3713742597337088e-05  -3.7335505499747815e-05 3.2380586901547152e-07 1.5244680501944649e-04  -4.5249540758371044e-05 -1.1064864926604418e-05 1.1725559601980147e-04  -5.2818556492112416e-05 4.1937952762865459e-06 -5.3601278686490657e-05  -2.0489818790388955e-05 2.9555710044454464e-05 7.9161635276369375e-05  -4.0062666395067624e-05 1.3728689947054336e-06 -1.2547570072222639e-04  1.1993378341000908e-05 1.7933306753930602e-05 -1.5996357087493229e-04  -5.1252958324543761e-05 -8.9238456761957858e-06 4.1667911994157303e-05  -3.1745418850029477e-05 8.6708848686418621e-06 1.6081876710515573e-04  -2.5355684393142124e-05 8.6851687725590088e-06 -1.7240066782009300e-04  -3.8156481615768275e-05 -1.3756109854693256e-05 1.2717361928085848e-04  -3.5953837129761405e-05 -2.0309639480601581e-05 1.2561700868824534e-04  -2.5252106900533023e-05 1.9560628484865878e-05 -1.1791688584290470e-04  -1.3934788835702065e-05 -3.4318145230535733e-05 1.9766026750669754e-05  -2.5543750690781766e-05 -4.0057273036712288e-06 -1.8187264843253466e-04  -3.8811241633517636e-05 -8.1257236730869765e-06 -1.3809919602779275e-04  -2.0993142460210160e-05 -1.6914892486634395e-05 1.5085927087828645e-04  -1.9346356941657090e-05 -2.4530308414437368e-05 1.1083870750733937e-04  -1.8053988492029798e-05 -7.8748208531940473e-06 1.9462029923365170e-04  2.9160375815936444e-05 3.0088350302216498e-05 -4.0018750920963921e-05  -3.9644012850293605e-05 -2.5145766925487432e-05 -1.7173166014517840e-05  -5.0915098611970589e-05 -2.1285722639845855e-05 -3.9804143883227985e-05  9.1217559428812744e-06 2.4731647313797925e-05 -1.3046244652395260e-04  -4.7793170255173071e-06 1.9838292063055068e-05 -1.5628587393767655e-04  -1.6710816628761632e-06 1.8490345158951277e-05 -1.5963110286046673e-04  -1.5816784500124292e-05 1.9240397452950167e-06 -1.8599385966639956e-04  -2.6039008987964408e-05 -2.3272339424370534e-05 -1.1795137416701673e-04  1.2901569925843917e-05 2.5747990840949239e-05 1.2413747851172067e-04  -3.1708417778151438e-05 -2.6008890085927559e-05 8.4633095977869127e-05  -3.4832895796529817e-06 2.2833096404965723e-05 1.2915698394257144e-04  -8.7592775933106702e-06 9.3950467245923949e-06 1.9502843743669408e-04  -6.0295619082453966e-06 2.5246332312996658e-05 -1.0132514027089488e-04  -1.2883402855324597e-05 -1.4456445964222514e-05 -1.9526983852639806e-04  -3.7215683675311504e-06 -2.1185177652602045e-05 1.4876327472900490e-04  -2.6785863753343323e-05 -1.5713196111588364e-05 -1.4196214267336654e-04  -3.9660014170359049e-05 -1.8598701050947095e-05 -1.1609311635932665e-04  -5.3993161010960068e-05 -9.4747298711427341e-06 -6.6476466582654245e-05  -6.4417611108789376e-05 -1.0043052481862577e-05 -1.9258460105426128e-05  -5.7743778827163751e-05 8.0123845565082401e-07 2.3800853890816191e-05  -2.2205813584002707e-05 1.9850514585869441e-05 1.4592756485099927e-04  -3.2814125607572508e-05 1.5525245481332769e-05 1.1143066094883640e-04  -6.3951970319871789e-06 -2.6459336171663486e-05 1.1466917375824793e-04  -8.4071013246147198e-07 3.3639612249766213e-05 8.1503685163597525e-05  2.2237703022084626e-05 2.4567754752391472e-05 -8.0803404750689919e-05  5.0087829744741011e-05 -1.2048018102991122e-05 -6.0240594966686974e-05  4.4089200666602114e-06 -3.6767240210756308e-06 1.8524271269904573e-04  9.8147978051751046e-06 -2.9061836209595550e-05 7.1673535258455170e-05  -1.6107480014391635e-05 1.7492325075547997e-05 -1.6610747112054974e-04  5.2258262240337938e-05 9.0636102524075290e-06 2.7429868187363666e-05  3.3997420619451764e-05 1.9786304502859884e-05 -7.9820705577084313e-05  4.3556004769835142e-05 1.9543975664003974e-05 -4.1820034314083993e-05  -4.2310448053677351e-05 -1.7646634290648549e-05 6.9112686881042182e-05  -1.5881033208309281e-05 2.5104636368720800e-05 -4.7869308542977428e-05  -3.1819804085180677e-05 2.8543956997021641e-05 -6.2207133383779007e-05  -2.0446495836087040e-06 -1.4154704790866075e-05 1.7951443459607549e-04  -1.4480062048727998e-05 3.7198756774224745e-06 2.0912263312368549e-04  -3.2028641663965260e-05 6.1142942121940396e-07 1.4484733107049321e-04  1.2555169247669715e-05 2.8670622332701460e-05 -2.3921308186071186e-05  -1.0801119535777780e-06 -3.3180796648152981e-05 1.1180901667395954e-05  3.0160384391401246e-05 -2.3769896276786420e-05 -8.4762274036172307e-05  5.2552142525482926e-05 6.3127788185429659e-06 -3.4526879885151516e-05  2.6370597972073197e-05 -1.5311271720375736e-05 -1.4848119357762401e-04  -4.6719210584910218e-05 -1.6863683959130456e-05 1.6345025453776877e-05  -1.2385336608729862e-05 -3.0705947581051912e-05 -9.8012558396897388e-05  2.7802418799246505e-05 1.9517762846321068e-05 1.2762358694585319e-04  -4.7003369687526364e-05 1.8200842651322301e-07 -1.0923683449887640e-04  1.2184770050962644e-05 -1.9694201737016850e-05 1.4850542864335454e-04  1.5113245172337944e-05 1.1591523786092374e-05 -1.8268816200446745e-04  8.3296412886834765e-06 3.1480818910603815e-05 -7.8018944049608897e-05  -3.4597508733699347e-05 2.1043966091937821e-05 9.0152960491887008e-05  4.3974269273268365e-05 -1.0324498820718751e-05 5.9097155929443389e-05  -3.2528589482045593e-06 1.5648343261710384e-06 -1.9385268469844990e-04  4.3292249274905532e-05 -1.9212938251800016e-05 -8.0614186597353587e-05  -5.6543668701584405e-05 7.6613615183725280e-06 -1.0783460200770774e-06  -3.0282536581409787e-05 -2.6760262205991672e-05 2.8925174615787729e-05  -2.0821208322149915e-05 -3.9029339167869464e-05 6.6192802212737664e-05  5.3024357273036736e-05 1.3720570419391999e-05 -2.6898403644831747e-05  -1.3507461034868341e-05 1.5820945577323057e-05 -1.8093077060941844e-04  1.8157949152193754e-05 1.7700863979564473e-05 1.5667710710817520e-04  -1.4714642472076298e-05 1.1900654930010362e-05 1.9138258441938485e-04  -1.9360746690805498e-05 2.5231772765034210e-05 -8.5756143081341924e-05  4.4057184141736779e-05 -1.3383320339544440e-05 -3.9383329948416319e-05  -3.0898575374449310e-06 -3.3612698384630355e-05 4.2963825112760386e-05  -3.3092842681770095e-05 1.1564740864468477e-05 1.6043806483728078e-04  -2.5079516105976107e-05 1.3773453228129133e-05 1.7400382809364224e-04  -1.3977663366761231e-05 1.9601649248111379e-05 -1.3143119802064279e-04  -3.8548551750561754e-05 -2.0008034877802000e-05 3.1202848960825552e-05  9.1339850026985768e-07 4.1337543229903656e-06 -6.6949844732152973e-06  -1.4488003211182159e-05 -9.9971435981288519e-06 1.3898331879491870e-06  1.9856337292639275e-05 4.5437750873315265e-06 -1.1651578010570958e-05  -6.6649192848143074e-06 7.0245505690387655e-06 -8.6275238769224237e-05  1.6138094181637526e-05 -7.6437432448221428e-06 -4.3541280947223258e-05  -1.2744349416773698e-05 2.3471493237699464e-06 1.2166386950438602e-04  -2.3905799581936200e-05 1.3194493199486654e-06 -9.8708957579381495e-06  3.9508992710293871e-06 9.3171308709419630e-06 5.2356728579346903e-05  1.5220578701309307e-05 -2.1261113154073338e-06 7.8045154106176200e-05  -1.2214039649753592e-05 -2.1422046115444875e-06 -1.1472247958053158e-04  1.0202983382972515e-05 3.3034821814605050e-06 -1.3060518226157430e-04  -3.7374081273587590e-06 -8.5296101522382543e-06 9.9392974182061205e-05  4.0923307146243734e-06 -1.6937646152879697e-05 2.6500992274513364e-05  8.4552524495224490e-06 4.9974577348179401e-06 1.4994753573846698e-04  -3.1089988207952078e-06 -1.5765981220650923e-05 -8.1426013689884596e-05  9.4571896479943516e-06 -1.5641012795590090e-06 -1.4775190000941894e-04  -1.7166674292378472e-05 1.3001340546063847e-05 2.9759047032737850e-05  -2.3642576199842818e-05 -1.5337851293323666e-06 6.1398991376103670e-05  2.5399898757167727e-05 -9.2261023475172324e-07 -9.9560138405560059e-05  -3.4121285326399631e-06 1.4830599099492095e-06 -1.6558807539187825e-04  4.0700230169602377e-06 1.0528593014964218e-05 -8.0570202836803691e-05  1.9632953977097392e-05 7.9385493104323686e-06 7.9986752478346129e-05  2.1988152043394554e-05 1.0560495558599209e-05 -1.9394935684922675e-05  -2.2461969872892576e-05 3.5350574857477044e-06 -1.1602184679328773e-04  2.5127325423055384e-05 -2.6847558077498698e-06 1.8051312704802004e-05  -6.8079123918379564e-06 1.0810040138106300e-05 1.2210485082488683e-04  -2.6819541046029005e-05 -5.6368978618217778e-06 -5.6932946670167132e-05  2.7773238255059311e-05 1.8722131451735149e-06 8.5607345569685086e-05  1.7911550341160835e-05 -8.2469437594282393e-06 3.7462098740909771e-05  -2.5365660049784792e-05 6.5348420756721350e-06 8.5621425707462878e-05  5.6036028002024705e-06 -1.3061138979387194e-06 1.4940012130640047e-04  -8.7484932335348933e-06 -1.3114585955400186e-05 8.0959388168800442e-05  -8.7468060198546204e-06 -1.5137176133115757e-05 -3.1448204529658991e-05  1.0784614653083507e-05 -1.5015826790632783e-05 -5.7531553779801098e-05  -2.3214138228388166e-05 9.8743252922898194e-06 -3.6159483271794020e-05  8.7621357486251451e-06 -1.0938737343405689e-05 1.2314045115490981e-04  -5.1325168063009158e-06 1.5336412816659990e-05 -1.0031041205076192e-05  -1.5760066641989485e-05 -2.4314300950767464e-06 1.5717275942184935e-04  2.6347086570163151e-05 4.6095323659983936e-06 -8.2655698193103458e-05  2.5377516911021677e-06 7.7887421254196488e-06 -6.8886025838838831e-05  1.0392232062575925e-05 6.2003350859125068e-06 6.8871035198380274e-05  </DataArray> 
</PointData> 
</Piece>
</UnstructuredGrid>
</VTKFile>