<?xml version="1.0"?>
<VTKFile type="UnstructuredGrid"  version="0.1"  >
<UnstructuredGrid>
<Piece  NumberOfPoints="201" NumberOfCells="657">
<Points>
<DataArray  type="Float64"  NumberOfComponents="3"  format="ascii">0.005400053248242944 -0.004472525341385138 1690.478889690216  -0.0003937628226501522 0.000813800908383808 -1690.478953984457  541.3314319561057 0.0006548846779807826 -1607.739128507526  1029.668620391838 -0.004591631094912645 -1367.632155480637  1417.218348044429 -0.000698654450665382 -993.6336211359184  1666.048458557004 -0.0009332558088093955 -522.3863728340812  1751.79535505947 0.001546917358409249 0.0093356044804163  1666.052165435414 -0.002931203904753525 522.3959767390065  1417.22891983235 0.0002844027726592361 993.6412920843431  1029.680774073915 0.001248452477599741 1367.62455497168  541.3296005004329 0.002104755043877192 1607.736138068436  685.8533828204227 -87.09119509208932 -1469.779092335514  681.3772661895233 67.65233605822921 1506.278352595385  1667.508078950905 -77.53414530810247 -250.6088194853064  1200.614745805545 -84.59830091217316 1127.223893300526  1516.690039036459 78.41899915867933 710.8461192020483  1510.383326075899 78.4182129693677 -723.2315160004222  765.8267174549889 77.95390880581152 -1450.423388291292  263.8876659164741 -77.9555270251991 1607.799289085274  1192.811221085529 -77.95428673501274 -1151.058492720526  830.390517629009 -152.8769241641646 -1189.683411019325  1233.806627744889 -149.8442056167107 -819.3737291869732  846.1541646977794 -214.0505620152046 -787.1228479629797  1192.190614387823 -200.9238526388442 -387.613687501047  748.2101324449953 -254.6781720483101 -329.308001361111  1065.259298861249 -228.659794938315 83.2984269978579  559.6355117302805 -272.0196608259637 150.3012420562154  811.6371284002508 -236.4642937697937 570.1311334401572  292.4012085470168 -264.845146132772 606.3240332587593  519.3688093890048 -216.1994569616161 1001.609026180725  -20.17708703564638 -232.1789088154788 1003.598526853768  1244.498988771544 -185.8907395796895 481.0704964217794  1192.821600977451 77.95643566838382 1151.061876944285  1208.758403021793 150.8352350571582 847.4657324295994  1463.816426888472 144.5492806423377 383.5667921383144  194.24765473442 -172.6464754385299 1342.184702069748  711.3239646716868 -151.422381311049 1265.473872991033  830.2925889836457 144.1660876068929 1226.460307386512  800.2087628797167 210.7499001997604 859.2098488317801  1670.70430106113 -75.64484811017455 250.5783318183678  1473.23971378756 -156.2338866705611 29.02391035176055  1520.056759607215 -78.48999525817739 -703.8553728649823  263.8920564072758 77.95218216275012 -1607.80320097805  1180.932279085631 75.99754564632546 -1166.827841539555  1199.492181416013 150.0260082232973 -864.4640057286969  363.1002812246493 -256.9761502830406 -682.8624797507972  -254.0448472037011 -267.977782783644 574.0049917873611  354.2671145094207 -156.7853771369493 -1378.039813424774  1453.823114642014 146.271256945025 -396.3820563668686  1087.364897129774 211.1526555685398 -477.1852951852943  772.0644516363544 205.5175381417472 -924.3431231202981  609.6587445736136 255.7488730967563 -514.5369732747547  269.3209761305631 240.2098424176492 -899.5657915129677  78.85001231024191 276.7807986105919 -466.9502400984792  -276.1004481048454 247.1136292714067 -830.4117789928339  -455.6321542527465 271.8552147528163 -352.1579564247241  -802.8713624931275 232.3252135317455 -636.4510520523615  -87.6383715244116 287.8183714172955 31.18967025858195  -559.6944952097856 -223.2307366156069 925.384873202409  -773.1686779339727 -246.7820622775359 458.1586316411118  -942.7112217245137 241.4041374468615 -171.9970269147034  -1245.058398026577 188.9686677176356 -436.419236222506  -1326.232579209533 188.5540119363942 39.05128870227119  -1555.487407594464 124.4791000443055 -272.7601849708551  -1576.786197505608 118.1589618054055 254.4933641301724  -1381.848275356889 117.9914711866191 -776.688306358183  -1275.304732188051 174.5071002001785 547.7748618013735  -1645.448291526597 51.61968099322569 -495.2967135753188  -1456.59353908345 97.14854022566571 747.7793117948654  -1400.612015066996 33.13821511368786 -996.6788987409934  -1572.803131903486 -37.4930004910541 -711.3789675100556  -1083.699781699599 146.3805582193105 1015.152211913273  -241.9969880068631 -119.6755560916854 1520.87103892156  -1055.718070378538 -190.9881577392973 754.7716430101055  -1258.608741186175 -50.78612178895033 -1137.716469379277  -1359.890950778099 -119.1623009243708 -806.0858780271386  -1683.193218648716 32.76421299075373 427.4402829378896  -585.7837603071588 192.5052113223792 -1126.034613774267  -1198.481846527621 62.53473906641556 1177.460341753582  376.8475402425428 194.5184146920951 1195.193335657947  -1621.885171744305 -97.62796543812442 -286.5361429389924  -1019.702082468433 20.28762142926518 -1369.458518431436  -794.5024782683988 111.4067002896478 1358.395869319561  -979.9809859372056 -128.179565909897 -1183.703929489983  -1026.292196738032 -190.7335664889196 -793.7752318890608  -864.9795136324925 214.7178773362688 761.3802517855912  -441.7668178494685 -278.3553803570892 108.8216356583285  -836.6576731045352 18.76643707126168 1481.165424931039  -1236.255172412197 -27.11125261571551 1187.174704769255  -592.3817741911554 -191.2727255587279 -1130.018662735573  -594.4498113460202 -243.677838274748 -699.9636448293107  -510.3826485016494 -121.2015559129267 -1453.433622824505  888.6192790577873 248.4678710720685 -47.71011477641746  -1194.854260777245 -204.8214023249662 299.750947060897  -1438.447167250046 -138.4352402625368 524.4242127569504  313.864763406941 250.2416302714161 784.4363376436628  -113.2924126188573 225.7629100309964 1047.229843357356  -39.23992262956847 170.2443663002403 1365.086663191019  -474.5695757533014 71.97387858608002 1571.88158125414  -791.5346824304215 -156.2463582758978 1199.287414412236  413.1708708178343 190.1686070324651 -1207.959864955746  -982.2750734578598 -230.4836685633333 -369.0630747655956  -129.7476204441724 145.9546171030732 -1453.494894227661  -287.4796564699375 62.60726988348143 -1626.871145024119  -195.0298934032743 269.3133961587724 573.9209053138409  -370.1305844009688 -44.31990428534548 1631.864517650219  -126.6414923176381 -236.3864017435456 -961.5967534731077  -799.7298504122169 -71.21552340365801 1445.233119953823  -1232.978202763936 -114.6282430431334 996.2300802557443  -1534.866963096404 -55.11641143682908 748.3648736534491  -1679.39210777833 -71.54386211505167 237.2041829515045  -1744.251667675284 -9.30637605432022 -146.8453662208846  -672.8874668912281 124.0304201613459 -1381.8988125837  -1020.589615265085 137.1846670739865 -1115.178499912411  -149.0567447041734 -271.3542426901339 -553.1909205750538  -59.61078390765137 213.2119567718108 -1138.100840881875  698.8888729543241 253.5451704871582 441.4865305753541  1509.8797024589 -75.02143684572886 736.4481716326031  87.53827693887278 -81.80318190479392 -1619.158429750279  277.0671810283171 -281.1615425701978 -260.3931370446158  -533.5674830671276 184.388534689961 1194.785636072526  1674.629895030179 72.69746401027639 -255.951698852418  1119.604617555387 209.2386084902534 434.8882455210273  1320.700982885954 189.6920501683127 -19.32015217518983  -1337.755625881903 -171.589969562772 -427.4659140649838  -580.7316275010685 271.1111499075493 131.6127961384733  -974.148714791478 233.943128725532 309.2620774371229  -95.0393622072429 -176.4954932648853 -1334.930373794255  -408.2335941012735 -32.24102091335007 -1633.099067871366  -860.593626168635 -51.74382477497087 -1441.012513140466  404.9442133653292 280.0884984503456 -86.37211429853866  47.45240546804379 -286.3496285348682 187.8831511244903  967.5610138564609 -182.3941347535526 919.7994065252996  1677.594232583006 73.62268732996385 227.1737466619911  766.2651870718929 -77.3901270221141 1451.236459728016  -1481.910460782491 -153.9060784343237 41.74475285562526  -313.6427191249085 -190.4417465947704 1234.129553316756  853.6274640003352 139.7744471860299 -1228.981188715974  -1500.907948233999 23.03253706861609 861.2612807609297  393.3924935833866 -214.8685881510833 -1062.999185246117  429.1413111516726 138.674894533339 1424.036826738904  249.7062293976003 278.8353140755486 355.3233733159263  -1089.776630239079 180.967967770826 -793.5227363741185  1465.230085783526 -139.2102340738313 -441.8279242660931  -26.80834132913329 75.13335634416231 1632.158083516327  1327.122893004926 -135.4840889533229 767.6957412882102  -1700.904650068427 68.85876768644638 -38.44632589971135  -905.899674777267 -246.9078330170425 16.3078495831667  -553.2782408192458 -269.3862694997662 -280.1766458817178  1571.75088049682 127.5945413267601 -11.76034190540696  -391.0629726331992 142.2754959697388 1422.092868467604  486.6182292020852 129.2131250914297 -1437.283155106801  -590.6040061777867 21.22484102359924 -1586.673748819657  -640.7860652710895 252.3314525230082 537.1626451831648  1490.155386617363 -129.4850738369997 464.9242090558982  -119.3977283279716 -286.1154245582121 -169.7714300545982  -1123.50686961903 75.10720707138725 -1220.407108214368  -767.8353331808597 63.83046013339835 -1472.895003220293  -490.0560536323546 232.0943035728544 886.2504691931971  -1232.163948185198 -204.5912676817591 -94.5765465790367  -0.004000669003538718 0.0001994858301103181 0.002727310693471513  -558.9369459428129 -112.7991502907538 46.85318682046752  845.1162878459833 44.00405752951369 -7.731178688473059  -336.7064329662733 118.556510386612 372.6298361852986  629.9549467561926 -84.06281564800773 338.99218731054  -410.3932090716338 12.30785978424434 -753.0792632855796  -869.2043567230894 22.39735389707528 0.6239119191317237  166.0785976504223 134.0921599053104 -323.5755577841555  587.0815983614877 -66.10589081900439 -506.6887368018706  -456.6533034665783 -12.56251523688619 730.414282557187  437.9096825583417 99.80901113259129 588.9643572129819  -161.7123316929145 -113.8916586746478 -639.7850056549311  144.6593574584956 -164.4225031770353 3.131055031112071  348.64512
[...]
<PointData  Vectors="Centrifugal"> 
<DataArray  type="Float64"  Name="Centrifugal"  NumberOfComponents="3" format="ascii">1.2970826038214332e-10 0.0000000000000000e+00 4.0871395728336922e-05  -9.4545153592876269e-12 0.0000000000000000e+00 -4.0871397273587408e-05  1.3087971213547853e-05 0.0000000000000000e+00 -3.8870963154133257e-05  2.4894681692623918e-05 0.0000000000000000e+00 -3.3065797966364056e-05  3.4264615611670414e-05 0.0000000000000000e+00 -2.4023485001236065e-05  4.0280672505897277e-05 0.0000000000000000e+00 -1.2629947871934333e-05  4.2353805761981889e-05 0.0000000000000000e+00 2.2423572349776367e-10  4.0280761545120524e-05 0.0000000000000000e+00 1.2630178550046524e-05  3.4264869535419602e-05 0.0000000000000000e+00 2.4023669250957709e-05  2.4894973612599392e-05 0.0000000000000000e+00 3.3065615404769763e-05  1.3087927224645351e-05 0.0000000000000000e+00 3.8870891326077316e-05  1.6582126527195725e-05 0.0000000000000000e+00 -3.5535435493171430e-05  1.6473907146919692e-05 0.0000000000000000e+00 3.6417896427990744e-05  4.0315950992093568e-05 0.0000000000000000e+00 -6.0590699360068994e-06  2.9027696752062609e-05 0.0000000000000000e+00 2.7253341972180067e-05  3.6669567710008280e-05 0.0000000000000000e+00 1.7186410081577854e-05  3.6517088167894029e-05 0.0000000000000000e+00 -1.7485858802358373e-05  1.8515672579999840e-05 0.0000000000000000e+00 -3.5067466862951118e-05  6.3801083147583719e-06 0.0000000000000000e+00 3.8872408187056987e-05  2.8839031774040243e-05 0.0000000000000000e+00 -2.7829602582483857e-05  2.0076638833893139e-05 0.0000000000000000e+00 -2.8763430403303166e-05  2.9830169404784235e-05 0.0000000000000000e+00 -1.9810312421196466e-05  2.0457738405506439e-05 0.0000000000000000e+00 -1.9030550471756430e-05  2.8823978065962678e-05 0.0000000000000000e+00 -9.3714774582086430e-06  1.8089696011754828e-05 0.0000000000000000e+00 -7.9617901401100727e-06  2.5755102833633864e-05 0.0000000000000000e+00 2.0139346373698812e-06  1.3530466231601624e-05 0.0000000000000000e+00 3.6338822154219749e-06  1.9623197435503901e-05 0.0000000000000000e+00 1.3784256949154269e-05  7.0694685945891030e-06 0.0000000000000000e+00 1.4659295966428096e-05  1.2556944149946713e-05 0.0000000000000000e+00 2.4216258725461963e-05  -4.8782843445749597e-07 0.0000000000000000e+00 2.4264350331227515e-05  3.0088662961000232e-05 0.0000000000000000e+00 1.1631018011330950e-05  2.8839281086923888e-05 0.0000000000000000e+00 2.7829683869495244e-05  2.9224567675270781e-05 0.0000000000000000e+00 2.0489502505721641e-05  3.5391197707596307e-05 0.0000000000000000e+00 9.2736413419265494e-06  4.6963923005078226e-06 0.0000000000000000e+00 3.2450502652702240e-05  1.7197923375592450e-05 0.0000000000000000e+00 3.0595845082068195e-05  2.0074272771314899e-05 0.0000000000000000e+00 2.9652602827836037e-05  1.9346901885502824e-05 0.0000000000000000e+00 2.0773423729817139e-05  4.0393226617513550e-05 0.0000000000000000e+00 6.0583326052908538e-06  3.5619020400604084e-05 0.0000000000000000e+00 7.0172177978127747e-07  3.6750964922066794e-05 0.0000000000000000e+00 -1.7017393714537623e-05  6.3802137723772472e-06 0.0000000000000000e+00 -3.8872502149765294e-05  2.8551831155207439e-05 0.0000000000000000e+00 -2.8210864575204797e-05  2.9000537524374173e-05 0.0000000000000000e+00 -2.0900477697430413e-05  8.7787820640614123e-06 0.0000000000000000e+00 -1.6509794986905137e-05  -6.1421146178481112e-06 0.0000000000000000e+00 1.3877907034367759e-05  8.5652368017163685e-06 0.0000000000000000e+00 -3.3317392008983522e-05  3.5149584487206469e-05 0.0000000000000000e+00 -9.5834816539003436e-06  2.6289567050091200e-05 0.0000000000000000e+00 -1.1537080512364653e-05  1.8666450728862844e-05 0.0000000000000000e+00 -2.2348177290821631e-05  1.4739898446379193e-05 0.0000000000000000e+00 -1.2440133304674000e-05  6.5114553404444937e-06 0.0000000000000000e+00 -2.1749112167423605e-05  1.9063792578832590e-06 0.0000000000000000e+00 -1.1289606719284240e-05  -6.6753626722616703e-06 0.0000000000000000e+00 -2.0077147844011299e-05  -1.1015947427097271e-05 0.0000000000000000e+00 -8.5142373933925703e-06  -1.9411267172693262e-05 0.0000000000000000e+00 -1.5387697780915097e-05  -2.1188572031239396e-06 0.0000000000000000e+00 7.5408183060492135e-07  -1.3531908931908386e-05 0.0000000000000000e+00 2.2373356284507469e-05  -1.8693130297278259e-05 0.0000000000000000e+00 1.1077057228252100e-05  -2.2792213346548755e-05 0.0000000000000000e+00 -4.1584311025701796e-06  -3.0102187543297106e-05 0.0000000000000000e+00 -1.0551467855617433e-05  -3.2064762969634401e-05 0.0000000000000000e+00 9.4415775924036961e-07  -3.7607569545464258e-05 0.0000000000000000e+00 -6.5946289672355904e-06  -3.8122521456467116e-05 0.0000000000000000e+00 6.1529861920074091e-06  -3.3409437692181996e-05 0.0000000000000000e+00 -1.8778296670309523e-05  -3.0833471349791312e-05 0.0000000000000000e+00 1.3243757272325440e-05  -3.9782610334980092e-05 0.0000000000000000e+00 -1.1974986881938687e-05  -3.5216588491571097e-05 0.0000000000000000e+00 1.8079356241457107e-05  -3.3863116679374385e-05 0.0000000000000000e+00 -2.4097108323135313e-05  -3.8026244496608999e-05 0.0000000000000000e+00 -1.7199296605561410e-05  -2.6200984927359042e-05 0.0000000000000000e+00 2.4543723606238390e-05  -5.8508469140981750e-06 0.0000000000000000e+00 3.6770695419564377e-05  -2.5524442372072748e-05 0.0000000000000000e+00 1.8248390243208200e-05  -3.0429848291793918e-05 0.0000000000000000e+00 -2.7507028751928792e-05  -3.2878566449339365e-05 0.0000000000000000e+00 -1.9489053306113534e-05  -4.0695187055106169e-05 0.0000000000000000e+00 1.0334396110033472e-05  -1.4162685280729570e-05 0.0000000000000000e+00 -2.7224550823504791e-05  -2.8976135816544529e-05 0.0000000000000000e+00 2.8467932424981718e-05  9.1111664461091823e-06 0.0000000000000000e+00 2.8896627225678479e-05  -3.9212903273096622e-05 0.0000000000000000e+00 -6.9276969670290052e-06  -2.4653715266559478e-05 0.0000000000000000e+00 -3.3109952370718540e-05  -1.9208970899840146e-05 0.0000000000000000e+00 3.2842470660078113e-05  -2.3693345578347990e-05 0.0000000000000000e+00 -2.8618869294369523e-05  -2.4813002406966483e-05 0.0000000000000000e+00 -1.9191394463092219e-05  -2.0912884645459832e-05 0.0000000000000000e+00 1.8408162143461036e-05  -1.0680719229693405e-05 0.0000000000000000e+00 2.6310164334951400e-06  -2.0228183480648508e-05 0.0000000000000000e+00 3.5810736751214511e-05  -2.9889399161335175e-05 0.0000000000000000e+00 2.8702804342614104e-05  -1.4322208082741001e-05 0.0000000000000000e+00 -2.7320874600540166e-05  -1.4372191719506036e-05 0.0000000000000000e+00 -1.6923260720968144e-05  -1.2339699636938597e-05 0.0000000000000000e+00 -3.5140232383770117e-05  2.1484411976764795e-05 0.0000000000000000e+00 -1.1535035344016435e-06  -2.8888375194343024e-05 0.0000000000000000e+00 7.2471874495381221e-06  -3.4777840399244637e-05 0.0000000000000000e+00 1.2679206379305383e-05  7.5884015080328700e-06 0.0000000000000000e+00 1.8965582776277098e-05  -2.7391052465348466e-06 0.0000000000000000e+00 2.5319242602825110e-05  -9.4871677756344928e-07 0.0000000000000000e+00 3.3004213963675321e-05  -1.1473841227532051e-05 0.0000000000000000e+00 3.8004012688129556e-05  -1.9137206448786451e-05 0.0000000000000000e+00 2.8995627317494103e-05  9.9893684603475181e-06 0.0000000000000000e+00 -2.9205289440187135e-05  -2.3748767101434847e-05 0.0000000000000000e+00 -8.9229668957759235e-06  -3.1369523690656401e-06 0.0000000000000000e+00 -3.5141705198065390e-05  -6.9504982394899254e-06 0.0000000000000000e+00 -3.9333518664179115e-05  -4.7152933636238645e-06 0.0000000000000000e+00 1.3875873046795904e-05  -8.9487821181410068e-06 0.0000000000000000e+00 3.9454249403145880e-05  -3.0618499100705045e-06 0.0000000000000000e+00 -2.3248857459327860e-05  -1.9335361946239856e-05 0.0000000000000000e+00 3.4941980220949985e-05  -2.9810153035820955e-05 0.0000000000000000e+00 2.4086246188969218e-05  -3.7109045040528951e-05 0.0000000000000000e+00 1.8093518420757391e-05  -4.0603279110894638e-05 0.0000000000000000e+00 5.7349808004650651e-06  -4.2171420763571656e-05 0.0000000000000000e+00 -3.5503401543585934e-06  -1.6268637897244959e-05 0.0000000000000000e+00 -3.3410704915969272e-05  -2.4675151212815628e-05 0.0000000000000000e+00 -2.6962099938303720e-05  -3.6037868415280985e-06 0.0000000000000000e+00 -1.3374677550789609e-05  -1.4412290110881649e-06 0.0000000000000000e+00 -2.7516271262002365e-05  1.6897242006468966e-05 0.0000000000000000e+00 1.0673968264283608e-05  3.6504911612038713e-05 0.0000000000000000e+00 1.7805400151578640e-05  2.1164441886548788e-06 0.0000000000000000e+00 -3.9147040963449304e-05  6.6987300262146799e-06 0.0000000000000000e+00 -6.2956084025571233e-06  -1.2900238462780552e-05 0.0000000000000000e+00 2.8886773893368515e-05  4.0488138584665264e-05 0.0000000000000000e+00 -6.1882468950730920e-06  2.7069037767681673e-05 0.0000000000000000e+00 1.0514448952636228e-05  3.1931021557306995e-05 0.0000000000000000e+00 -4.6711108788332363e-07  -3.2343368192675796e-05 0.0000000000000000e+00 -1.0335002792047791e-05  -1.4040512715613382e-05 0.0000000000000000e+00 3.1820453797143683e-06  -2.3552292091479673e-05 0.0000000000000000e+00 7.4771358099492196e-06  -2.2977970068509062e-06 0.0000000000000000e+00 -3.2275110371697023e-05  -9.8700114408565226e-06 0.0000000000000000e+00 -3.9484098020838445e-05  -2.0806888891289798e-05 0.0000000000000000e+00 -3.4839939891365966e-05  9.7904483368851760e-06 0.0000000000000000e+00 -2.0882463316575261e-06  1.1472700127662856e-06 0.0000000000000000e+00 4.5425101510641774e-06  2.3393044367857303e-05 0.0000000000000000e+00 2.2238331956315127e-05  4.0559808122125989e-05 0.0000000000000000e+00 5.4924700921013033e-06  1.8526272462256629e-05 0.0000000000000000e+00 3.5087125369220279e-05  -3.5828659300144972e-05 0.0000000000000000e+00 1.0092786642584403e-06  -7.5830432559672548e-06 0.0000000000000000e+00 2.9838004944723211e-05  2.0638450228256472e-05 0.0000000000000000e+00 -2.9713552389618190e-05  -3.6288009431937899e-05 0.0000000000000000e+00 2.0823062724122707e-05  9.5111751696659489e-06 0.0000000000000000e+00 -2.5700510832274479e-05  1.0375500472008186e-05 0.0000000000000000e+00 3.4429489069626382e-05  6.0372168563063038e-06 0.0000000000000000e+00 8.5907669394438618e-06  -2.6347891353212869e-05 0.0000000000000000e+00 -1.9185293222708362e-05  3.5425378534898719e-05 0.0000000000000000e+00 -1.0682244909953769e-05  -6.4815500327164413e-07 0.0000000000000000e+00 3.9461340945058909e-05  3.2086314187046589e-05 0.0000000000000000e+00 1.8560876268792206e-05  -4.1123394663368486e-05 0.0000000000000000e+00 -9.2953300080876751e-07  -2.1902206340912555e-05 0.0000000000000000e+00 3.9428062333218371e-07  -1.3376764911817392e-05 0.0000000000000000e+00 -6.7739229078009347e-06  3.8000774539127939e-05 0.0000000000000000e+00 -2.8433477715819714e-07  -9.4548651842078100e-06 0.0000000000000000e+00 3.4382487841089828e-05  1.1765139181025676e-05 0.0000000000000000e+00 -3.4749753631977749e-05  -1.4279250382237353e-05 0.0000000000000000e+00 -3.8361654345876800e-05  -1.5492473304563958e-05 0.0000000000000000e+00 1.2987161341917821e-05  3.6028011145119896e-05 0.0000000000000000e+00 1.1240652658783227e-05  -2.8867112916552476e-06 0.0000000000000000e+00 -4.1046177046789481e-06  -2.7163435070794974e-05 0.0000000000000000e+00 -2.9506269935055704e-05  -1.8564235783300071e-05 0.0000000000000000e+00 -3.5610773097843934e-05  -1.1848235940637286e-05 0.0000000000000000e+00 2.1427186357765618e-05  -2.9790425832310997e-05 0.0000000000000000e+00 -2.2866113280328131e-06  -9.6093064566013623e-11 0.0000000000000000e+00 6.5509131876765177e-11  -1.3513572502756405e-05 0.0000000000000000e+00 1.1327842962319403e-06  2.0432619657600890e-05 0.0000000000000000e+00 -1.8691933856591567e-07  -8.1406430425339057e-06 0.0000000000000000e+00 9.0091899516029779e-06  1.5230598083832806e-05 0.0000000000000000e+00 8.1959242512200902e-06  -9.9221947579926286e-06 0.0000000000000000e+00 -1.8207447377931352e-05  -2.1015004846665351e-05 0.0000000000000000e+00 1.5084379034383261e-08  4.0153275792473528e-06 0.0000000000000000e+00 -7.8231877940503734e-06  1.4194038898967023e-05 0.0000000000000000e+00 -1.2250379794018178e-05  -1.1040638524375961e-05 0.0000000000000000e+00 1.7659468548577417e-05  1.0587466698065622e-05 0.0000000000000000e+00 1.4239583566550198e-05  -3.9097641239073025e-06 0.0000000000000000e+00 -1.5468288774509230e-05  3.4974675788914796e-06 0.0000000000000000e+00 7.5700145408049235e-08  8.4292953712042325e-06 0.0000000000000000e+00 -2.0271316301581094e-05  -3.3297007340037265e-06 0.0000000000000000e+00 1.5372011521218188e-05  7.3898934834785494e-06 0.0000000000000000e+00 2.1649058246313499e-05  -1.4299658431844439e-05 0.0000000000000000e+00 -7.6549619237744596e-06  -2.1048214764930556e-05 0.0000000000000000e+00 -1.1399637070874907e-05  2.1431971607389066e-05 0.0000000000000000e+00 1.4547781058351662e-05  -2.8602717347675314e-06 0.0000000000000000e+00 2.2965400501401816e-05  4.4003388404902596e-06 0.0000000000000000e+00 5.8624569818346357e-06  1.8168925990578269e-05 0.0000000000000000e+00 -1.2328233836868124e-05  1.8167429637197469e-05 0.0000000000000000e+00 1.1291241845257266e-06  -2.0867343247558840e-05 0.0000000000000000e+00 1.3825022107461468e-05  2.5647414087673906e-05 0.0000000000000000e+00 -2.1865591712399502e-06  -5.1206083006019175e-06 0.0000000000000000e+00 -2.0339313724438686e-05  -2.4667224358762257e-05 0.0000000000000000e+00 8.8776716082479275e-06  2.4112228297324203e-05 0.0000000000000000e+00 -1.3433061197262945e-05  1.7863200655472149e-05 0.0000000000000000e+00 -3.3918893275754704e-06  -2.2951703466597254e-05 0.0000000000000000e+00 -1.3736283979160523e-05  5.3060576429640906e-06 0.0000000000000000e+00 -2.4716179910400680e-05  -8.2713029066068077e-06 0.0000000000000000e+00 -6.8424628080533469e-06  -8.0167334551172782e-06 0.0000000000000000e+00 6.3738181329844301e-06  9.5352479910709711e-06 0.0000000000000000e+00 1.2584334851697787e-05  -2.0838264442927011e-05 0.0000000000000000e+00 5.2336386479250153e-06  8.0420578593030711e-06 0.0000000000000000e+00 -1.2946964252027519e-05  -5.7527855007947792e-06 0.0000000000000000e+00 -3.0493919733240917e-06  -1.3933887461930851e-05 0.0000000000000000e+00 -2.2898411987116846e-05  2.4038326615424345e-05 0.0000000000000000e+00 1.0363874071499287e-05  3.0287834054527886e-06 0.0000000000000000e+00 3.2761512957067407e-06  9.0045702696685900e-06 0.0000000000000000e+00 -7.2108139399676448e-06  </DataArray> 
</PointData> 
</Piece>
</UnstructuredGrid>
</VTKFile>