<?xml version="1.0"?>
<VTKFile type="UnstructuredGrid"  version="0.1"  >
<UnstructuredGrid>
<Piece  NumberOfPoints="201" NumberOfCells="657">
<Points>
<DataArray  type="Float64"  NumberOfComponents="3"  format="ascii">-0.2605419657939315 0.05538466445199092 436.5396665392361  -0.0786248025392265 -0.04034906101086759 -436.6597178673541  913.0108340569228 0.06435094076293066 -417.2713853405548  1727.574719721625 0.038315046127118 -359.182487535134  2362.084657900591 -0.09421938077963635 -265.2265334705389  2762.792581930179 -0.07385882745763915 -140.8075062919209  2899.744355373739 -0.01472693074321184 0.05186811272311952  2762.871328770817 -0.02793152538044614 140.8341196689535  2362.086414731423 -0.06484702010234582 265.1945714742715  1727.527775915041 0.08332168543626939 359.2448576104749  913.08759174941 0.04331303298358087 417.2379237493428  1152.258578775495 -775.1514463925748 -383.1996780166333  1146.269244492747 601.9807030206007 392.2830956625985  2759.814333746469 -698.7080217683716 -67.61598712843364  2003.846285107741 -757.0340016356422 298.4438749542157  2517.648834910722 704.9563405735688 190.6620067019122  2507.551907711407 705.0182583970757 -193.8614045391939  1286.183825501229 694.2811869382933 -378.7364052393595  444.8278089375165 -691.9951644670768 416.1494671090253  1991.722127221631 -697.492244508507 -304.5254248619217  1385.130596581975 -1363.993657614187 -312.2216519978032  2047.544584958673 -1343.01709500975 -217.6848715950639  1400.0919197794 -1913.605325543542 -207.4722358177243  1967.287864726436 -1802.187627477106 -103.0806954177054  1231.330047200653 -2278.326250691803 -86.8656490572525  1753.963579386654 -2049.7463353052 22.14564527679753  919.3164343220614 -2431.92131869314 39.55954495833215  1338.751577312454 -2115.041152921808 150.4370840655194  481.7908477668827 -2364.124780585693 158.9308971610189  861.7082204792368 -1928.088453168094 262.1976675181406  -33.41598961549806 -2068.804899359829 262.0191365930161  2056.340005481088 -1667.722106356687 128.0765719165111  1992.040412721377 697.5937187357262 304.5723160222814  2006.346460322759 1351.49371101056 225.0361117654362  2420.314697330036 1299.714473676024 102.8041585925069  324.606535696802 -1535.562665423283 348.8654092377618  1188.651548126947 -1349.535372070144 330.9099510442517  1386.129702122147 1286.119224072424 321.6867054287169  1325.237186173116 1883.043476560804 226.0688544017419  2765.289842118674 -681.6805589479371 67.64224666133724  2433.198237432774 -1405.021794194324 7.8463214842023  2523.489733751679 -705.6823508985533 -188.6897153349538  444.6990251390187 692.1036918476303 -416.129061509945  1972.672129041042 679.7975848582436 -308.5595031678894  1991.246566870138 1344.139056944172 -229.455373929244  598.871638840006 -2293.670678028356 -178.978921682783  -418.8828942118425 -2392.118045243109 150.4607833363541  593.1651840487385 -1394.621352200927 -358.2458632816986  2403.923184794086 1314.954950878899 -106.1611301280671  1794.466518264919 1892.29810709837 -126.6247016387097  1280.208233074258 1835.464146915699 -242.9444378524967  1004.411279394068 2285.632996917222 -135.3469695122401  445.7662074290182 2141.868060045436 -235.2412625518712  129.4083269238822 2471.021438487959 -122.4204544683018  -456.5682244459794 2204.125000700675 -217.2131040162719  -749.4793218420465 2429.173236633759 -92.55003988299465  -1325.766016921634 2077.590193247688 -167.8379832937613  -144.2751371681748 2570.848998669908 8.224691710729267  -927.4972560217499 -1991.960085330754 242.5564779293167  -1273.820019251778 -2207.572873257274 120.8599947958997  -1552.015706690165 2162.272260403017 -45.54628679765885  -2056.258052843876 1695.614240949474 -116.3095600891817  -2187.334162376494 1693.712333245455 10.4047570478056  -2572.326465728675 1120.483530092525 -73.35413052631696  -2607.613668601194 1063.868297076476 68.3419145457418  -2293.424265778377 1059.118628219042 -207.3381304271996  -2108.833196984076 1565.870257442892 146.0412995938678  -2727.088389580542 464.903475844746 -133.4737123526428  -2417.865884201603 872.830045376199 199.989004830632  -2334.062529144726 297.2558051666903 -265.8792276456854  -2611.53062352969 -337.1832265258444 -191.1367643018289  -1803.096998972594 1309.473237306804 268.2683061268884  -406.9715268522818 -1063.218036695699 393.9978862214202  -1748.250685204196 -1709.894627926819 199.7268906738033  -2101.808993126282 -454.7696383737417 -301.7538780718996  -2257.59791781508 -1069.387262714376 -215.0368916047506  -2788.90155073768 295.1725887621004 115.3388252559312  -974.7558182150379 1716.34733145583 -294.6161110368855  -2002.562599073715 559.6006555883212 311.6945688113526  627.9281685701349 1732.138558603187 311.7286141703095  -2683.017433006191 -879.43375744898 -77.29909062990913  -1710.409943169592 181.1387574314584 -359.7842865204398  -1330.961004418669 992.7647798951677 355.2594701614232  -1635.35892490106 -1144.860065532393 -311.607484983688  -1700.163519058127 -1707.09811530024 -209.9439825868588  -1430.884578428699 1919.987713100804 200.7928847897452  -725.670100773067 -2487.893037937471 28.62036254899954  -1406.977382901793 167.3289360604139 386.8234102562588  -2066.580905280172 -242.6964328687624 314.3802399720894  -985.9140717105212 -1705.465942551249 -295.6935894170598  -981.3865334415389 -2176.6335006556 -183.975340550458  -856.7425901625809 -1077.947612916507 -378.0750308006158  1462.223190692941 2224.823539640015 -12.58087136626205  -1971.129744951739 -1837.474767664374 79.71350957068732  -2380.800192055872 -1244.093233700308 140.4357881292744  518.408858120304 2232.5772429223 205.42754179512  -188.4378149119471 2011.359602813665 273.1345389489973  -65.69236736899524 1513.828049670512 354.5400400878048  -799.3859911849643 639.6442145162498 408.0279508481241  -1320.409619982859 -1393.909769620121 314.504797371525  688.5517876913007 1693.634083462536 -315.073163486821  -1618.97985677969 -2064.508839755673 -97.78255412377479  -217.475644677142 1297.0749036633 -376.9059097833658  -484.9283120541723 555.9388078779928 -421.0483251557612  -321.5274432997592 2403.792803760452 150.4037109898966  -624.4529933386116 -393.5031804611621 422.4566794113337  -209.7495880663851 -2106.760219246582 -251.136555540152  -1342.815646336697 -634.297625067938 377.6548781090439  -2052.468733124368 -1026.677663554452 264.2131881371042  -2549.102519835802 -495.5424932068639 200.9031921298291  -2778.781940348499 -644.8448568996231 64.04901257400763  -2887.095749149118 -83.9018783843275 -39.79453688031776  -1127.747411897533 1104.560862565694 -360.7563065032132  -1701.184723648677 1226.045598800436 -294.0069844000661  -245.8814662526394 -2422.083859415686 -144.9911457069126  -99.22693981365639 1898.468128140508 -296.5802175235485  1150.952571671927 2267.139865353943 116.3159796767678  2507.315128626991 -674.4950536992515 197.2919532590393  147.1614717042454 -726.0694738550466 -418.5804730772503  455.1663616051648 -2511.464991704335 -68.35401453564202  -889.0971060665888 1642.899930121122 312.0911186530109  2771.556280566506 655.1635917936284 -69.0744909036743  1847.326684541676 1875.75679939624 115.5304287246414  2178.159345713302 1703.859496137473 -5.157999522554753  -2210.572784781179 -1540.814540982675 -114.0744361260192  -954.5395451667498 2424.183224851149 34.67355349745785  -1604.694124184773 2095.623938294935 81.91699713954239  -158.8594605785561 -1569.598908958666 -346.8176654622608  -688.7860795237124 -286.2858032942843 -423.0715947449699  -1445.577732921726 -461.0564050382613 -376.9685173794937  664.8402445567039 2502.863228953982 -22.730258761288  77.51249924951567 -2557.539668741945 49.30417438944146  1605.54088020355 -1630.875330647676 242.7643124338242  2776.136425837753 663.5335558618044 61.31935029144686  1286.661237837898 -689.277513524995 379.0010910984718  -2447.413373081731 -1384.369792318409 11.207066135027  -523.0754055742375 -1695.263688273061 321.4355258747083  1425.355513371328 1246.990784495793 -322.3538545738472  -2496.554232543257 206.9235876590057 230.6541079784292  653.2678434931825 -1914.898128887683 -277.6838953373952  719.3955387506624 1233.34766176291 370.1952154643246  410.1420621795669 2490.322944672388 93.26333703521564  -1806.059786732529 1620.428067884327 -210.2188346523601  2424.285313588367 -1251.413027089199 -118.2891826094257  -45.31735287380568 666.9263541947465 421.7780456072142  2201.856339394605 -1215.403261668885 204.5557929691589  -2813.853605081196 620.8431348243366 -10.42315756378593  -1490.414857781789 -2211.239056159906 4.252988145763588  -909.566080746219 -2408.235239138156 -73.77925019494356  2597.65856131373 1148.878229652222 -3.180922572285973  -655.5173689664775 1265.364479276311 369.6712010072284  816.3118577622495 1149.330570823469 -373.8506904943774  -995.5139737646642 188.6737008902456 -412.2959807970735  -1056.312312508718 2255.436952051701 141.4043136418472  2466.411063402669 -1164.194301721639 124.6367043661405  -196.6619719149126 -2555.506819871132 -44.55553208296596  -1878.570955252933 671.3548046217543 -322.0140588173482  -1290.140187676894 568.3864754593336 -384.5498180442451  -811.4306388426151 2070.864515131555 232.2506000272579  -2031.491691700475 -1836.100128811214 -25.19535756336566  0.06676771289536054 -0.01214316689307273 -0.01527697836488279  -938.8002496118916 -1005.433289242028 12.09451904430045  1420.797485657083 392.7408345962132 -1.984591806494769  -566.114258601283 1055.83991884702 96.62305001662962  1059.504765682486 -749.3016686937981 88.17794414631776  -693.3357474386925 109.5429535379455 -194.9365420769207  -1461.669584789175 200.0291375087076 0.1202221175441916  279.1893657529072 1193.724619908741 -83.7980818817592  988.8434266034199 -588.9536180810263 -131.5348733661413  -770.8443948883516 -111.7958566472216 189.1889225046894  736.9443959023026 888.8107743737509 152.7613469847624  -272.0098149222386 -1013.517295375684 -165.5993108381595  242.1915989998886 -1464.559390184246 0.7925770202827397  588.4248424918185 388.7490818044243 -21
[...]
<PointData  Vectors="Coriolis"> 
<DataArray  type="Float64"  Name="Coriolis"  NumberOfComponents="3" format="ascii">1.8315976564018067e-10 0.0000000000000000e+00 -2.9122443813788172e-12  -1.8189932063032440e-10 0.0000000000000000e+00 -1.0075775217883065e-12  -1.5234788618784768e-10 0.0000000000000000e+00 6.8575879878782425e-10  -8.5926136472846333e-11 0.0000000000000000e+00 1.1987573059150437e-09  -1.8823696772641923e-11 0.0000000000000000e+00 1.4719633013310500e-09  4.0591596201997696e-12 0.0000000000000000e+00 1.5754366238520737e-09  -5.4147856019858947e-13 0.0000000000000000e+00 1.5992404791225672e-09  -4.3780350720593351e-12 0.0000000000000000e+00 1.5762174672034912e-09  1.9112125161695080e-11 0.0000000000000000e+00 1.4719561639128685e-09  8.5306619781538163e-11 0.0000000000000000e+00 1.1983125282366210e-09  1.5262305869547273e-10 0.0000000000000000e+00 6.8649849230867117e-10  -1.2155460280315791e-10 0.0000000000000000e+00 8.1983781783886155e-10  1.2891037419052988e-10 0.0000000000000000e+00 8.3074159366962023e-10  2.5653614551436501e-12 0.0000000000000000e+00 1.5225453753554143e-09  4.6481421393372226e-11 0.0000000000000000e+00 1.2834729825291485e-09  4.1766761856167106e-12 0.0000000000000000e+00 1.4666568615071403e-09  -5.5552256655022668e-12 0.0000000000000000e+00 1.4647756357396608e-09  -1.1392626960657800e-10 0.0000000000000000e+00 9.0955601531614341e-10  1.6439978188337789e-10 0.0000000000000000e+00 3.3258738905826283e-10  -4.9843167040649244e-11 0.0000000000000000e+00 1.2843626073667706e-09  -7.7724881351598907e-11 0.0000000000000000e+00 8.8656371338357823e-10  -2.6478748365768726e-11 0.0000000000000000e+00 1.1977516549489710e-09  -4.2491805094584046e-11 0.0000000000000000e+00 7.8667956678711424e-10  -1.1600879831442094e-11 0.0000000000000000e+00 1.0445310928203906e-09  -1.7161783026004533e-11 0.0000000000000000e+00 6.2862394171746220e-10  2.5495461412085956e-12 0.0000000000000000e+00 8.9713618815450138e-10  8.7075693560754904e-12 0.0000000000000000e+00 4.5445494239968477e-10  2.9158704077602732e-11 0.0000000000000000e+00 7.1205372953823935e-10  4.1883911369542710e-11 0.0000000000000000e+00 2.5303140202360864e-10  7.2627294791943753e-11 0.0000000000000000e+00 5.0974267133795279e-10  8.0004173242462296e-11 0.0000000000000000e+00 -1.9166496440105788e-11  1.2844342480361017e-11 0.0000000000000000e+00 1.1166433790770062e-09  4.9265617900653869e-11 0.0000000000000000e+00 1.2877775139875277e-09  2.8448467740230155e-11 0.0000000000000000e+00 1.1782402064976376e-09  3.1309211931281454e-12 0.0000000000000000e+00 1.3208090981912092e-09  1.2249615320321872e-10 0.0000000000000000e+00 2.1521404455735702e-10  9.4961813002505796e-11 0.0000000000000000e+00 7.8385979439774596e-10  8.2003785594322545e-11 0.0000000000000000e+00 8.9870971957368795e-10  5.0492112262302891e-11 0.0000000000000000e+00 7.5681002111568785e-10  -2.8937903645752723e-12 0.0000000000000000e+00 1.5273059183320428e-09  -4.4693669162730801e-13 0.0000000000000000e+00 1.3020362195418196e-09  -5.2154956627009714e-12 0.0000000000000000e+00 1.4728767702129612e-09  -1.6462940332781165e-10 0.0000000000000000e+00 3.3094161324785647e-10  -5.1901733224787412e-11 0.0000000000000000e+00 1.2801569404756812e-09  -3.0048362643089299e-11 0.0000000000000000e+00 1.1720143556191741e-09  -4.7347328906929430e-11 0.0000000000000000e+00 3.2018922481597420e-10  3.9693283585110222e-11 0.0000000000000000e+00 -2.2329571015544493e-10  -1.2515093858111634e-10 0.0000000000000000e+00 4.0445431327374869e-10  -4.0888459025677019e-12 0.0000000000000000e+00 1.3135117008832385e-09  -1.7111528344087686e-11 0.0000000000000000e+00 9.5706504275483106e-10  -5.6989128649078619e-11 0.0000000000000000e+00 7.4685447138213735e-10  -3.0684064666866196e-11 0.0000000000000000e+00 5.2461594416964935e-10  -6.7799647647823891e-11 0.0000000000000000e+00 2.5379692769645452e-10  -3.2043556251718445e-11 0.0000000000000000e+00 6.2870575674723756e-11  -6.1966073371754388e-11 0.0000000000000000e+00 -2.5621242313046375e-10  -2.1822597600821079e-11 0.0000000000000000e+00 -3.8120421621966111e-10  -3.3511416844529187e-11 0.0000000000000000e+00 -7.1959598649034804e-10  1.6842290120056600e-12 0.0000000000000000e+00 -7.4827614485315778e-11  6.3857160179497665e-11 0.0000000000000000e+00 -5.3767617642288669e-10  2.3746569136118475e-11 0.0000000000000000e+00 -6.6351869850279999e-10  -7.1439543324750128e-12 0.0000000000000000e+00 -7.9474529738294098e-10  -1.0420235251289267e-11 0.0000000000000000e+00 -1.1066237351450296e-09  9.9640060848280930e-13 0.0000000000000000e+00 -1.1456104545868839e-09  3.6382597793060910e-13 0.0000000000000000e+00 -1.4040347702677022e-09  7.2949000600584001e-13 0.0000000000000000e+00 -1.4227536737653153e-09  -1.4729842299048668e-11 0.0000000000000000e+00 -1.3376266502545684e-09  1.2520132100158957e-11 0.0000000000000000e+00 -1.1590983788559721e-09  3.5560013295374174e-12 0.0000000000000000e+00 -1.5410545915608542e-09  1.0385006253372950e-11 0.0000000000000000e+00 -1.4106913202392968e-09  -2.0469948885900530e-11 0.0000000000000000e+00 -1.4516819719873155e-09  -6.6722798206387011e-13 0.0000000000000000e+00 -1.5252557577408456e-09  4.7323242484812795e-11 0.0000000000000000e+00 -1.1041605051724687e-09  1.5212576219221146e-10 0.0000000000000000e+00 -2.9531898999519214e-10  3.2653046191693865e-11 0.0000000000000000e+00 -9.9105402247936359e-10  -4.1260751902219163e-11 0.0000000000000000e+00 -1.3548245112868003e-09  -1.6857557318896346e-11 0.0000000000000000e+00 -1.3234671428958465e-09  -4.5849880388948837e-12 0.0000000000000000e+00 -1.5668631650786250e-09  -8.2982131615550113e-11 0.0000000000000000e+00 -6.0409415096332524e-10  4.8934449128983251e-11 0.0000000000000000e+00 -1.3041979416689525e-09  9.8280672156292541e-11 0.0000000000000000e+00 3.9821802485137983e-10  2.8503398400533729e-12 0.0000000000000000e+00 -1.4693524480561798e-09  -8.4803913687439212e-11 0.0000000000000000e+00 -1.1827735294649829e-09  1.0116786767480146e-10 0.0000000000000000e+00 -9.0793958285802695e-10  -6.7385525060675683e-11 0.0000000000000000e+00 -1.0503467475299965e-09  -3.5339930904859537e-11 0.0000000000000000e+00 -9.7082793593662907e-10  4.0020600209370688e-11 0.0000000000000000e+00 -8.0016917018130606e-10  6.5708279733340730e-12 0.0000000000000000e+00 -3.5924171501156758e-10  1.1546856072657363e-10 0.0000000000000000e+00 -1.0116419125412555e-09  4.8099592141442784e-11 0.0000000000000000e+00 -1.3534895379843975e-09  -8.2877693895855223e-11 0.0000000000000000e+00 -6.1255220330962697e-10  -4.3181412029379239e-11 0.0000000000000000e+00 -5.3254682723958159e-10  -1.2927407506871045e-10 0.0000000000000000e+00 -6.0454470356982192e-10  -2.5365645414800252e-12 0.0000000000000000e+00 7.4281110377074530e-10  9.0043627680519173e-12 0.0000000000000000e+00 -1.0411418237239796e-09  5.5417486223985993e-12 0.0000000000000000e+00 -1.3235086474323715e-09  5.6182897601865427e-11 0.0000000000000000e+00 2.8457897425399450e-10  8.6253550508236861e-11 0.0000000000000000e+00 -1.1666273624228972e-10  1.2757724021624592e-10 0.0000000000000000e+00 -4.4727500625568762e-11  1.4849172635106145e-10 0.0000000000000000e+00 -5.9094501103958861e-10  8.0767646394640859e-11 0.0000000000000000e+00 -8.4656947704786608e-10  -9.9130996817453761e-11 0.0000000000000000e+00 4.3743634032279604e-10  -1.4771182662454413e-11 0.0000000000000000e+00 -8.4555328892354863e-10  -1.4174107072316165e-10 0.0000000000000000e+00 -1.5058070485185707e-10  -1.6667581852949120e-10 0.0000000000000000e+00 -3.6599578865257752e-10  4.0063287421327617e-11 0.0000000000000000e+00 -1.7104089163386019e-10  1.6585870071838153e-10 0.0000000000000000e+00 -4.7193790617297840e-10  -7.5805009598777940e-11 0.0000000000000000e+00 -1.2091322009134581e-10  1.1064859016460455e-10 0.0000000000000000e+00 -9.4593720068730156e-10  3.6631627598765462e-11 0.0000000000000000e+00 -1.2613949677360699e-09  2.5117473918661066e-12 0.0000000000000000e+00 -1.4959090462343692e-09  -2.9330140415021403e-12 0.0000000000000000e+00 -1.5247678502035632e-09  3.3365418982506371e-12 0.0000000000000000e+00 -1.5905588603590547e-09  -1.0962991990375776e-10 0.0000000000000000e+00 -7.7617468046695895e-10  -5.9039486206758871e-11 0.0000000000000000e+00 -1.0731463318754368e-09  -3.8356762373527754e-11 0.0000000000000000e+00 -1.3224983717789469e-10  -9.6320827571856365e-11 0.0000000000000000e+00 -6.2078785954734936e-11  2.4426736568464072e-11 0.0000000000000000e+00 5.9574420324345929e-10  6.7368293895817201e-12 0.0000000000000000e+00 1.4707902375727023e-09  -1.7085680373868360e-10 0.0000000000000000e+00 1.0590378119949677e-10  -1.6986319404092039e-11 0.0000000000000000e+00 2.2592118992526078e-10  9.3325172802782023e-11 0.0000000000000000e+00 -5.6334792826755986e-10  2.7879370424436819e-12 0.0000000000000000e+00 1.5279667523183340e-09  1.4228857405616891e-11 0.0000000000000000e+00 9.8111747435511680e-10  -4.0183393773523682e-13 0.0000000000000000e+00 1.1408263463218109e-09  -8.6341721611508969e-12 0.0000000000000000e+00 -1.1983501362984229e-09  7.3539984077988933e-12 0.0000000000000000e+00 -4.7754894691246083e-10  1.2627977244623481e-11 0.0000000000000000e+00 -8.2983683344217578e-10  -1.2357216142275634e-10 0.0000000000000000e+00 -1.0595581992603614e-10  -1.6289292280348133e-10 0.0000000000000000e+00 -5.2078249365064941e-10  -1.0587953379799730e-10 0.0000000000000000e+00 -1.0230246067913798e-09  -5.0668193375900815e-12 0.0000000000000000e+00 3.2579638816453885e-10  1.2423159415512342e-11 0.0000000000000000e+00 3.4008170659460558e-11  4.6226752204395668e-11 0.0000000000000000e+00 9.4384653356583071e-10  -2.6370926917636750e-12 0.0000000000000000e+00 1.5272151467697207e-09  1.1342267041996199e-10 0.0000000000000000e+00 9.0746835827810403e-10  1.5580399162914507e-13 0.0000000000000000e+00 -1.3080054674973667e-09  1.0615408310036603e-10 0.0000000000000000e+00 -3.3662128069282724e-10  -8.2062372073744959e-11 0.0000000000000000e+00 9.2626730668111890e-10  8.5142060661829612e-12 0.0000000000000000e+00 -1.5036426964284211e-09  -8.3102179432350478e-11 0.0000000000000000e+00 3.9256880873593877e-10  1.2925672777037585e-10 0.0000000000000000e+00 4.9817214344053313e-10  2.3298552292190876e-11 0.0000000000000000e+00 2.0277429001623884e-10  -3.1822925387257756e-11 0.0000000000000000e+00 -1.0369672010062211e-09  -4.9972806108419704e-12 0.0000000000000000e+00 1.3389459242858796e-09  1.7383828329761774e-10 0.0000000000000000e+00 -3.4958979450250240e-11  1.8576463181464817e-11 0.0000000000000000e+00 1.2793705817691381e-09  9.2456245525702163e-13 0.0000000000000000e+00 -1.5383505443796743e-09  1.3506726555503264e-12 0.0000000000000000e+00 -7.5388720097036434e-10  -1.5898302392833382e-11 0.0000000000000000e+00 -4.5655085203682028e-10  1.6258067159830436e-13 0.0000000000000000e+00 1.4021813725438715e-09  1.2932104122556499e-10 0.0000000000000000e+00 -4.5401492989602242e-10  -1.2825906207740836e-10 0.0000000000000000e+00 5.7075919446659686e-10  -1.4522661270510843e-10 0.0000000000000000e+00 -7.4156914890671786e-10  3.0942759868036228e-11 0.0000000000000000e+00 -5.5768807534831197e-10  3.5323730264609730e-12 0.0000000000000000e+00 1.3695297186261336e-09  -1.1156590219110880e-11 0.0000000000000000e+00 -1.0299795807368514e-10  -6.1461611247418025e-11 0.0000000000000000e+00 -1.2386216799185006e-09  -1.1614091093883454e-10 0.0000000000000000e+00 -9.1800739483334078e-10  6.1753153461849934e-11 0.0000000000000000e+00 -4.6440441551475816e-10  -2.3563849191349087e-12 0.0000000000000000e+00 -1.0602167597082080e-09  1.6307051540938743e-13 0.0000000000000000e+00 4.5924677567906878e-13  5.0465791474960855e-12 0.0000000000000000e+00 -6.7116850570400104e-10  -9.7752872552505274e-13 0.0000000000000000e+00 1.0239006808434522e-09  3.5807885611711421e-11 0.0000000000000000e+00 -4.1144194302899932e-10  2.9588383413071388e-11 0.0000000000000000e+00 7.7058457365326337e-10  -7.5603924564804486e-11 0.0000000000000000e+00 -5.3602191913239646e-10  4.7347640348034876e-13 0.0000000000000000e+00 -1.0565539402798329e-09  -3.2184487342574709e-11 0.0000000000000000e+00 2.0258342990991258e-10  -4.6990150251746817e-11 0.0000000000000000e+00 7.3377052664887795e-10  7.2086223401831796e-11 0.0000000000000000e+00 -5.8928308084156593e-10  5.6119178387829821e-11 0.0000000000000000e+00 5.4124323970924244e-10  -6.4583343509927285e-11 0.0000000000000000e+00 -1.9901066937696010e-10  5.0644399745617293e-13 0.0000000000000000e+00 1.6609577210650177e-10  -8.5650827419091421e-11 0.0000000000000000e+00 4.4906672776732826e-10  6.3789103891404737e-11 0.0000000000000000e+00 -1.6623491974579191e-10  9.3848198954664252e-11 0.0000000000000000e+00 4.0006651748402615e-10  -2.7221479644963905e-11 0.0000000000000000e+00 -6.9824163590856371e-10  -3.4607889870372598e-11 0.0000000000000000e+00 -1.0394061766964757e-09  4.5485224084896705e-11 0.0000000000000000e+00 1.0731245240514241e-09  9.9841147704244511e-11 0.0000000000000000e+00 -1.5426666380720802e-10  2.2161307533408923e-11 0.0000000000000000e+00 2.0333056593753899e-10  -4.0207173994008259e-11 0.0000000000000000e+00 8.8130957114132486e-10  3.8078749342472375e-12 0.0000000000000000e+00 8.3205344842350129e-10  4.2653081341217448e-11 0.0000000000000000e+00 -1.0248814099909980e-09  -5.7195113643953173e-12 0.0000000000000000e+00 1.2151557022456970e-09  -8.3823943990666368e-11 0.0000000000000000e+00 -2.6002805730384421e-10  2.2894660989700183e-11 0.0000000000000000e+00 -1.1760080015451382e-09  -3.6303567913261807e-11 0.0000000000000000e+00 1.1795960573852241e-09  -1.0807147220328549e-11 0.0000000000000000e+00 8.2401010650973592e-10  -3.8300344853109317e-11 0.0000000000000000e+00 -1.1172199705479185e-09  -1.0767719803315443e-10 0.0000000000000000e+00 2.8104542644374281e-10  -2.4589575284629762e-11 0.0000000000000000e+00 -3.7836476783242896e-10  2.2902163211693320e-11 0.0000000000000000e+00 -3.5883882912864188e-10  4.5315375418989757e-11 0.0000000000000000e+00 4.4297091290541415e-10  1.4097277133411439e-11 0.0000000000000000e+00 -9.4016562139076068e-10  -4.8806754309233482e-11 0.0000000000000000e+00 3.7891377227757014e-10  -1.0664282463430989e-11 0.0000000000000000e+00 -2.5869252768896781e-10  -8.5695214447678783e-11 0.0000000000000000e+00 -7.1021976254046131e-10  2.5947998758550290e-11 0.0000000000000000e+00 1.1209430165725050e-09  1.4117081762612563e-11 0.0000000000000000e+00 1.5788393196597253e-10  -2.9376644444878685e-11 0.0000000000000000e+00 4.8175566975880793e-10  </DataArray> 
</PointData> 
</Piece>
</UnstructuredGrid>
</VTKFile>