<?xml version="1.0"?>
<VTKFile type="UnstructuredGrid"  version="0.1"  >
<UnstructuredGrid>
<Piece  NumberOfPoints="201" NumberOfCells="657">
<Points>
<DataArray  type="Float64"  NumberOfComponents="3"  format="ascii">0.05311313080619941 -0.04407171001223396 3632.888133149478  -0.004634007608139264 0.007945156641865431 -3632.888558004019  1164.283436832103 0.006364290450040062 -3455.064378632133  2214.548477284576 -0.04507022766154218 -2939.127965630444  3048.075915263752 -0.006911508325742282 -2135.309749026439  3583.311672750804 -0.009078057597254141 -1122.620863077988  3767.799253373229 0.01510037844720094 0.09289896688580955  3583.347980132336 -0.02897191532828894 1122.716985715188  3048.181933064823 0.00288294129301765 2135.386611078465  2214.670170469564 0.01236242520137956 2939.052953681517  1164.264734219253 0.02075110890239643 3455.03459340028  1475.3937077207 -186.113909147335 -3159.161470984579  1465.699585647666 144.5927998289635 3237.42822120775  3587.006936970454 -165.7437132553069 -538.6357391467036  2582.853383007731 -180.7799229255044 2422.859897429989  3262.605411218583 167.6276762585086 1527.909209971136  3249.030882027857 167.6266256739413 -1554.429183343803  1647.348158886734 166.5929023630526 -3117.462383512448  567.6546339234839 -166.6086407862374 3455.659863735205  2565.884655955013 -166.5968829324885 -2473.992228863864  1787.035109359877 -326.1560261853277 -2558.106845285115  2655.217760609801 -319.6967420857238 -1761.817418205741  1822.124469164112 -455.5303562121881 -1693.460616204467  2566.972107388421 -427.8996546964721 -833.7967711087836  1612.121446202643 -540.7450402170722 -708.8447092725989  2294.449950648247 -486.2821952415879 179.2730737876278  1206.101088465605 -576.9758995058711 323.5968007982222  1748.369914520439 -502.6443714146284 1226.972168648221  630.0812376299835 -561.9665014450928 1305.318916973346  1118.456848494552 -460.0339087486353 2154.95558400041  -43.4208678039745 -493.6074957389638 2159.693857648165  2679.183876060481 -396.1415519472114 1034.772765201348  2565.989125999229 166.6180167595263 2474.02602548471  2601.418675736536 321.8294729435636 1822.272575578731  3150.11912916647 308.5138876996499 824.7397489203026  418.0512709329844 -368.0483364863164 2886.501143904271  1530.908320443048 -323.0085349557256 2721.088233651815  1786.746320617983 307.6324858662849 2637.021438019678  1723.181046587466 448.5588511585487 1848.549148285579  3593.911723529003 -161.7064568776769 538.5818095892539  3170.762121916449 -333.3155510934091 62.4279768994102  3269.907120576626 -167.7873132169231 -1512.798587850757  567.6982752232651 166.5755978386001 -3455.698409815623  2540.287709968321 162.4058482316091 -2507.879352397266  2581.353898690221 320.1216536625433 -1858.751272216437  782.3505375289047 -545.5269973034875 -1469.906636942932  -547.4853557663625 -568.5102869176792 1235.781710094192  762.4860220819007 -334.3681409663804 -2963.271508977612  3128.684645963042 312.1781254453233 -852.2568481354948  2341.550496266603 449.4331332904637 -1026.59139073324  1662.43531618087 437.5547961809817 -1988.527012736964  1313.592732116216 542.9824234174644 -1107.550233577042  580.1380092081523 510.4448366953667 -1935.94798301603  169.9246513807557 586.8824043434344 -1005.42428436382  -594.8423581873728 524.8414248593017 -1787.31705528832  -981.9664910299722 576.6366637261684 -758.2180833218176  -1729.372066644672 493.9402624229108 -1369.634626117917  -188.9004519915037 609.8176261106371 67.20106514968344  -1205.401647818531 -474.8340995760206 1991.152611182799  -1665.688876951652 -524.2990288460629 986.0941760719279  -2030.832411806379 513.0287681846567 -370.1682666453328  -2680.410220028364 402.6444435295556 -938.7411342477858  -2855.141556712829 401.7995879387009 83.97764025944441  -3346.864730621325 265.8387346739214 -586.4144401840061  -3392.518653899682 252.3712531653453 547.0801079828994  -2973.111901093302 252.0381097475147 -1669.737773915982  -2745.119798109817 372.0781498383743 1178.088040409192  -3539.215299544009 110.3731009488446 -1064.566322723737  -3133.538075633918 207.6096383544918 1607.409838241424  -3012.430937694948 70.85880855970694 -2142.031578539112  -3382.815442107931 -80.18831152740178 -1528.875920672179  -2332.1480778236 312.3486110273221 2182.788507334202  -520.6886856632472 -255.5288409562068 3269.492554992047  -2272.870578125374 -406.8627692908577 1623.541302871572  -2707.134444713277 -108.5885308676124 -2445.237522679806  -2925.928352917712 -254.501545252274 -1732.9343760214  -3620.219262309919 70.09120680137455 918.6542794967316  -1261.192430035082 410.0359700129633 -2422.148603022827  -2577.922820866623 133.6570269476723 2530.652354958269  811.3330083306638 414.3214851302171 2570.877986661897  -3489.164044497944 -208.5991282488495 -615.9673027908553  -2193.198612889651 43.40299056873985 -2943.167472753731  -1709.32877347105 237.9219965723822 2920.156839158356  -2108.652662413062 -273.6692705556678 -2544.900589034063  -2209.566880585999 -406.3229574294172 -1707.431276056147  -1862.673813072001 456.9258678921217 1638.095588375681  -952.1861585534757 -590.1460518400489 234.281560698299  -1799.464910190761 40.1436303992671 3183.176183498845  -2658.987176992741 -57.98602686465473 2551.341485374314  -1275.374742039072 -407.4095785204474 -2430.719968253546  -1280.618639103306 -517.7622425945256 -1506.463437992609  -1098.277819827696 -258.7812061593957 -3124.62695221099  1914.512398606181 527.7423107534871 -102.6937364168463  -2572.841258857452 -436.0693050296338 644.819486096418  -3095.322918040203 -295.5586993871776 1127.549966685119  676.2155333149112 531.476083289509 1688.422101980016  -244.0376919983781 480.0327655896554 2253.449222581089  -84.46607205341731 362.9815852225598 2935.654938779812  -1020.879434246819 153.8100669745874 3378.396632078036  -1703.485458356407 -333.2766195576514 2578.893124652761  889.4882892744799 405.0570316693239 -2598.281827581699  -2115.736224541546 -490.0703559510038 -794.171696448775  -279.2589842066755 311.3984191208362 -3125.180102431654  -618.5144343992157 133.7821359195642 -3496.524788642279  -420.2990533544641 571.3069928764355 1235.649658230409  -796.1953868512326 -94.7588726619731 3507.062414692381  -272.7982014196194 -502.4278736838209 -2069.377957174323  -1720.230524864893 -152.1950415573002 3106.279806632694  -2652.806367830182 -244.8152292710972 2141.6003234222  -3301.350948689739 -117.869446356214 1608.431941576834  -3612.392322221462 -152.9401446309191 509.8182752410218  -3751.498216422051 -19.89947091969169 -315.5753757319695  -1447.844958303178 264.793873126869 -2970.958811179055  -2196.203702273247 292.8170891319386 -2397.744243640579  -321.2542235052636 -575.5847340379066 -1191.013407323701  -128.3609239853833 453.7547111045343 -2448.555379354042  1505.823686126118 538.4330788418561 950.3047242712797  3247.960568620744 -160.3657476058396 1582.985792298019  188.3371195178788 -174.7682879357921 -3480.158559740956  597.2054335993279 -596.0037675091428 -560.6982196906932  -1148.614173446151 392.8939866662848 2569.81492247939  3602.284824384454 155.4256627210036 -550.1180825008187  2410.939240100363 445.3892351907213 935.6245642031042  2843.34094707586 404.1937968340609 -41.52365356745942  -2879.517772821807 -365.8692689248308 -919.3497954137555  -1251.579616698059 575.1102998485595 283.3690588218081  -2098.309110858892 497.3344295183708 665.5610299087169  -204.6540092373193 -376.1970277083071 -2870.982355209507  -878.2107982442133 -68.92542044153514 -3509.696204263002  -1851.095086030169 -110.6154933449833 -3097.062689123532  872.8455107349656 593.7809419325652 -185.9819742957004  102.2791756106884 -606.795834541522 404.6173354021792  2082.874560949085 -388.7101126984303 1978.271910634598  3608.677839377972 157.3664784675203 488.3012212737949  1648.348559012579 -165.3672840742723 3119.182589616702  -3189.261227981165 -328.4002869862963 89.76939391191226  -675.233038864713 -405.7182451172969 2654.506515108226  1836.859365685598 298.3277896094035 -2642.379991682412  -3228.110272741474 49.26340619086966 1850.95397973306  847.153187157326 -457.1912653515129 -2287.019761173581  923.4055573429368 295.9403860681146 3061.699029033385  538.2232338636794 591.1454305532911 765.1212471147928  -2345.998436957087 385.6657835998351 -1706.718871295246  3153.047610595891 -297.178610824696 -949.9201374485275  -57.67016773510747 160.5179505710286 3507.993832049085  2855.784485364906 -289.2046348854923 1650.584541874134  -3658.7184947401 147.2066768091363 -82.59618147677459  -1951.687171586103 -524.5677785370773 35.08974717587782  -1192.388945271734 -571.4981684141446 -603.1855773766785  3381.993986970757 272.4519727805899 -25.26272030658687  -841.5643029738676 303.6382063809264 3057.588322013897  1047.129137050141 275.8336156208589 -3090.033137848034  -1270.364763566562 45.37461470006527 -3409.920054679319  -1380.636175659542 535.8714847882967 1156.27361640169  3206.441940508817 -276.4917561488471 999.5813051041258  -257.3899665732368 -606.3321861417609 -365.5957489845385  -2416.809436556677 160.5377984011977 -2623.139812538275  -1651.660823466926 136.4419157152994 -3165.712734141671  -1055.551787393572 493.4938527478287 1907.127430999268  -2653.063197083404 -435.6952457791318 -203.4602919482985  -0.03991785166483296 0.001799846656721584 0.02694144626051573  -1204.803639720323 -239.2219859015856 100.8986549893309  1821.155235267188 93.43618592082522 -16.63953845635847  -725.8361844072215 251.3780955534444 802.4269995076554  1357.695263236089 -178.3923855926651 729.8710611670673  -884.3600789319734 26.14273864525838 -1621.160653893018  -1873.012282563091 47.5654506341282 1.350014576438089  358.0079239737356 284.2341427098372 -696.856759786467  1265.202608470905 -140.3340028501928 -1090.853462775462  -984.0390203047129 -26.68333099350776 1572.372473726432  943.7436396619396 211.8291748511921 1268.029754721634  -348.548658239978 -241.6453930931016 -1377.554756910052  311.8948037491945 -348.3392585107367 6.760574249777046  751.204834518
[...]
<PointData  Vectors="Coriolis"> 
<DataArray  type="Float64"  Name="Coriolis"  NumberOfComponents="3" format="ascii">-1.3180089953262070e-10 0.0000000000000000e+00 5.2330768445537374e-13  1.3180246198799871e-10 0.0000000000000000e+00 -5.6178365241994118e-14  1.2518413874896451e-10 0.0000000000000000e+00 5.4350167725220738e-11  1.0722584128713720e-10 0.0000000000000000e+00 1.0286778754273648e-10  7.6999801145371978e-11 0.0000000000000000e+00 1.4170901473475611e-10  4.0696909042701343e-11 0.0000000000000000e+00 1.6742620872650205e-10  -9.2621212142896897e-13 0.0000000000000000e+00 1.7685794440370196e-10  -4.1661190886979990e-11 0.0000000000000000e+00 1.6778192587201766e-10  -7.7771790780500399e-11 0.0000000000000000e+00 1.4277871871533808e-10  -1.0648333377790499e-10 0.0000000000000000e+00 1.0409352161314253e-10  -1.2488567355926924e-10 0.0000000000000000e+00 5.4159175504770366e-11  1.2173568715495725e-10 0.0000000000000000e+00 7.2357284532036035e-11  -1.2240494389036633e-10 0.0000000000000000e+00 7.1056339109381580e-11  2.0427216862776976e-11 0.0000000000000000e+00 1.7462318882767728e-10  -9.3248274718381792e-11 0.0000000000000000e+00 1.2813197865544403e-10  -5.8983735350811360e-11 0.0000000000000000e+00 1.5915913308363973e-10  5.8715375170607014e-11 0.0000000000000000e+00 1.5839193695154850e-10  1.1892133291881915e-10 0.0000000000000000e+00 7.9745012177898786e-11  -1.3108829486279603e-10 0.0000000000000000e+00 2.7645501956114334e-11  9.3980057427036898e-11 0.0000000000000000e+00 1.2498612347268917e-10  1.1104243374467715e-10 0.0000000000000000e+00 9.6697010224374840e-11  7.6044422277234116e-11 0.0000000000000000e+00 1.4385500957862516e-10  8.5628001937810147e-11 0.0000000000000000e+00 1.1337614407258197e-10  4.0417694597498795e-11 0.0000000000000000e+00 1.5573921323731559e-10  4.0325524330455326e-11 0.0000000000000000e+00 1.1190806438610545e-10  -9.8307310301947195e-12 0.0000000000000000e+00 1.4912228237448608e-10  -1.9291186305484713e-11 0.0000000000000000e+00 8.7416522990462526e-11  -6.6608497052194911e-11 0.0000000000000000e+00 1.1609715591667417e-10  -7.6674233594563000e-11 0.0000000000000000e+00 4.4538326596978580e-11  -1.0943633849927410e-10 0.0000000000000000e+00 7.0080308193558921e-11  -1.1548756975835661e-10 0.0000000000000000e+00 -2.3344742077225104e-12  -4.9411961161906415e-11 0.0000000000000000e+00 1.5726234843257756e-10  -9.4317252294735587e-11 0.0000000000000000e+00 1.2604515862067872e-10  -7.9315067935437300e-11 0.0000000000000000e+00 1.4228933081628666e-10  -3.5532874205991086e-11 0.0000000000000000e+00 1.6950553790115048e-10  -1.3136657641745672e-10 0.0000000000000000e+00 2.2902091262455253e-11  -1.1828489330034877e-10 0.0000000000000000e+00 8.4227014816332085e-11  -1.1238774942021344e-10 0.0000000000000000e+00 9.5701469433616237e-11  -9.3421899421405046e-11 0.0000000000000000e+00 1.0717388918573274e-10  -2.0579778891521673e-11 0.0000000000000000e+00 1.7532647579470999e-10  -2.9597238706002486e-12 0.0000000000000000e+00 1.7522496873059225e-10  5.7319572167824097e-11 0.0000000000000000e+00 1.6025915664419226e-10  1.3146871186794009e-10 0.0000000000000000e+00 2.8078769284923802e-11  9.5187341749952826e-11 0.0000000000000000e+00 1.2318579673196480e-10  7.9986057706313594e-11 0.0000000000000000e+00 1.3963395216775313e-10  8.3959040062891565e-11 0.0000000000000000e+00 5.4321093214311883e-11  -7.3106908448216906e-11 0.0000000000000000e+00 -3.9417220172345597e-11  1.3056199540309856e-10 0.0000000000000000e+00 4.2376823587106544e-11  3.6229113855778798e-11 0.0000000000000000e+00 1.6924926749180430e-10  5.1246365691997108e-11 0.0000000000000000e+00 1.4567469548277699e-10  9.8552418546728553e-11 0.0000000000000000e+00 1.0162289053161901e-10  6.2945218581603321e-11 0.0000000000000000e+00 9.1173688719727308e-11  1.0514284994986331e-10 0.0000000000000000e+00 3.8348448344026560e-11  6.1032098820857247e-11 0.0000000000000000e+00 1.2194110399392458e-11  9.9548867682306384e-11 0.0000000000000000e+00 -4.0607082808576640e-11  4.5534009793575732e-11 0.0000000000000000e+00 -7.1279175022811412e-11  7.3547855783729645e-11 0.0000000000000000e+00 -1.1336925902252764e-10  -4.6411016386214762e-12 0.0000000000000000e+00 -1.4029014090204847e-11  -1.0356380358009832e-10 0.0000000000000000e+00 -7.6845241001145617e-11  -5.4765305072593861e-11 0.0000000000000000e+00 -1.1295944662456396e-10  2.0296738184314802e-11 0.0000000000000000e+00 -1.3627756834266961e-10  4.4985167229575416e-11 0.0000000000000000e+00 -1.5761727747510870e-10  -3.7419662497100529e-12 0.0000000000000000e+00 -1.6759049420523690e-10  2.4373812814296088e-11 0.0000000000000000e+00 -1.7338514042149424e-10  -2.1951290390210347e-11 0.0000000000000000e+00 -1.7355776174590819e-10  6.8319517691780919e-11 0.0000000000000000e+00 -1.5223331974746998e-10  -5.4172924150046544e-11 0.0000000000000000e+00 -1.5627344786871064e-10  4.0642593852136676e-11 0.0000000000000000e+00 -1.6801626341907906e-10  -6.3506424585006001e-11 0.0000000000000000e+00 -1.5548974210993297e-10  7.9492892403527451e-11 0.0000000000000000e+00 -1.4095395905986071e-10  5.6768000638022899e-11 0.0000000000000000e+00 -1.5874549718384676e-10  -9.4319705617902478e-11 0.0000000000000000e+00 -1.2594530203017005e-10  -1.3246833160120219e-10 0.0000000000000000e+00 -2.6924783677172611e-11  -7.8071602912403159e-11 0.0000000000000000e+00 -1.3465475634270261e-10  9.1907410261199236e-11 0.0000000000000000e+00 -1.2822900831416454e-10  7.0871015368780169e-11 0.0000000000000000e+00 -1.5056015713122784e-10  -3.4251898120157828e-11 0.0000000000000000e+00 -1.6955652254478335e-10  1.1656624426361509e-10 0.0000000000000000e+00 -7.5364687035229244e-11  -9.5052719375656252e-11 0.0000000000000000e+00 -1.2355735964227262e-10  -1.2328886328216029e-10 0.0000000000000000e+00 4.8228787339372659e-11  2.4788964525167696e-11 0.0000000000000000e+00 -1.7361172330353421e-10  1.0882806144042509e-10 0.0000000000000000e+00 -1.0296606346169059e-10  -1.1762840663012896e-10 0.0000000000000000e+00 -8.6498044623434363e-11  1.0606370113894624e-10 0.0000000000000000e+00 -1.1021494712086429e-10  8.2007109810162006e-11 0.0000000000000000e+00 -1.3151453821451897e-10  -8.3074728375102891e-11 0.0000000000000000e+00 -1.1603353482162427e-10  -1.3841360502992052e-11 0.0000000000000000e+00 -7.0421262262971579e-11  -1.1686755468046599e-10 0.0000000000000000e+00 -8.3999898961774026e-11  -9.3437643897552233e-11 0.0000000000000000e+00 -1.2509441847518909e-10  1.1699670915010636e-10 0.0000000000000000e+00 -7.5915370947446286e-11  8.2808493105876791e-11 0.0000000000000000e+00 -8.6285813862909891e-11  1.2796872092788844e-10 0.0000000000000000e+00 -5.8331476770414173e-11  5.7932153091128088e-12 0.0000000000000000e+00 1.3111606980048724e-10  -3.1567723556540601e-11 0.0000000000000000e+00 -1.5779117176512779e-10  -4.7823801325141512e-11 0.0000000000000000e+00 -1.6399815956515955e-10  -9.4793002951422007e-11 0.0000000000000000e+00 4.6313347716102922e-11  -1.1876167252071394e-10 0.0000000000000000e+00 -1.6090439575614946e-11  -1.3234954796064377e-10 0.0000000000000000e+00 -4.8242766983604434e-12  -1.2734199976097878e-10 0.0000000000000000e+00 -5.0005122829824119e-11  -1.1365847270633571e-10 0.0000000000000000e+00 -9.3058134038250158e-11  1.2387964259006836e-10 0.0000000000000000e+00 5.2277812078543180e-11  4.2046158824065436e-11 0.0000000000000000e+00 -1.3782706909603832e-10  1.3331642733337330e-10 0.0000000000000000e+00 -1.5579164923409071e-11  1.3103927613857117e-10 0.0000000000000000e+00 -3.1527421070399103e-11  -7.3713644739021028e-11 0.0000000000000000e+00 -3.0196688576596060e-11  -1.2898429300032751e-10 0.0000000000000000e+00 -3.8770245914785539e-11  1.1155022749416550e-10 0.0000000000000000e+00 -1.8068279138866193e-11  -1.1815895075761895e-10 0.0000000000000000e+00 -8.2692612854628530e-11  -8.6204603908268118e-11 0.0000000000000000e+00 -1.3577073467510463e-10  -6.0561834320612680e-11 0.0000000000000000e+00 -1.5655127033927711e-10  -1.9249241321561328e-11 0.0000000000000000e+00 -1.7359735850815958e-10  1.1461501937982891e-11 0.0000000000000000e+00 -1.7512479841922359e-10  1.2318147299085952e-10 0.0000000000000000e+00 -7.5349623486209344e-11  1.0207409537110704e-10 0.0000000000000000e+00 -1.1696542281980520e-10  7.1001373462887891e-11 0.0000000000000000e+00 -2.3460001819021571e-11  1.2356575038192548e-10 0.0000000000000000e+00 -7.9129276120574742e-12  -5.3966258065875068e-11 0.0000000000000000e+00 1.0416513807833034e-10  -6.1699136840280384e-11 0.0000000000000000e+00 1.5850615164520172e-10  1.3307981161824727e-10 0.0000000000000000e+00 9.5646540007423432e-12  3.4378094303790080e-11 0.0000000000000000e+00 4.4340641411357255e-11  -1.2088042130144160e-10 0.0000000000000000e+00 -6.6650916916743913e-11  2.0847050485031435e-11 0.0000000000000000e+00 1.7483329317569576e-10  -4.7072790843736723e-11 0.0000000000000000e+00 1.4952237239089789e-10  1.5552945298567539e-12 0.0000000000000000e+00 1.6826752428749313e-10  4.2374801136039504e-11 0.0000000000000000e+00 -1.6356041612400842e-10  -1.6994010146871542e-11 0.0000000000000000e+00 -9.0869738655954493e-11  -3.6153598258315738e-11 0.0000000000000000e+00 -1.3766655949970372e-10  1.3170531494361114e-10 0.0000000000000000e+00 -1.2665743966629922e-11  1.2883683262141809e-10 0.0000000000000000e+00 -4.3415844712555896e-11  1.1597304094138495e-10 0.0000000000000000e+00 -8.8304970408765188e-11  1.1389432586465114e-11 0.0000000000000000e+00 6.4896793483076573e-11  -2.5488667874829389e-11 0.0000000000000000e+00 7.5702212655679393e-12  -9.1964216510741108e-11 0.0000000000000000e+00 1.2085687435242366e-10  -1.8963754528756353e-11 0.0000000000000000e+00 1.7535171631228726e-10  -1.1863742831181608e-10 0.0000000000000000e+00 8.0521266978035639e-11  -3.9930250058475550e-12 0.0000000000000000e+00 -1.7418654342355217e-10  -1.2573616622348450e-10 0.0000000000000000e+00 -3.9845137602070344e-11  1.1183391073384426e-10 0.0000000000000000e+00 9.7081562972961475e-11  -6.8154094957792163e-11 0.0000000000000000e+00 -1.5057571760805547e-10  1.1593671289603880e-10 0.0000000000000000e+00 5.2893482406081721e-11  -1.2880128467297998e-10 0.0000000000000000e+00 4.8390935445622815e-11  -4.7068189890250789e-11 0.0000000000000000e+00 3.9874434583463556e-11  7.9831760449706077e-11 0.0000000000000000e+00 -1.3649088809721094e-10  3.9756041371694076e-11 0.0000000000000000e+00 1.6822368704734681e-10  -1.3281090432075912e-10 0.0000000000000000e+00 -2.8370438574639871e-12  -6.9799326391888634e-11 0.0000000000000000e+00 1.5150132762763042e-10  2.6721330270411804e-12 0.0000000000000000e+00 -1.7648067618919980e-10  -1.8260548620819837e-12 0.0000000000000000e+00 -1.3295078152652266e-10  3.5562537834125442e-11 0.0000000000000000e+00 -8.6275304594540410e-11  7.7903255746567017e-13 0.0000000000000000e+00 1.7693209508945946e-10  -1.2949987605983434e-10 0.0000000000000000e+00 -4.5290728790886699e-11  1.2815163608301639e-10 0.0000000000000000e+00 5.5475113352830887e-11  1.2513674735404730e-10 0.0000000000000000e+00 -6.0658615382931111e-11  -6.5979391717543967e-11 0.0000000000000000e+00 -9.5509028061281995e-11  -4.1901758808021144e-11 0.0000000000000000e+00 1.6800147696983865e-10  2.2814945997546810e-11 0.0000000000000000e+00 -1.9540255430117026e-11  1.0085639410010594e-10 0.0000000000000000e+00 -1.1782239877278805e-10  1.2014856343820578e-10 0.0000000000000000e+00 -7.9856727992176985e-11  -1.0148433969803806e-10 0.0000000000000000e+00 -6.8930712812283489e-11  1.0075082455194737e-11 0.0000000000000000e+00 -1.6124358176421518e-10  -2.6645995444332050e-13 0.0000000000000000e+00 -3.9984011765588356e-13  -6.3169523221722748e-12 0.0000000000000000e+00 -8.9898682570619414e-11  9.1788065304623305e-13 0.0000000000000000e+00 1.2932382445501749e-10  -4.9816770280675758e-11 0.0000000000000000e+00 -5.4877889253590930e-11  -4.3785855407201722e-11 0.0000000000000000e+00 9.8892636338142468e-11  9.3882651400040676e-11 0.0000000000000000e+00 -6.2759109965301739e-11  -1.6274352891287165e-13 0.0000000000000000e+00 -1.3235774236594243e-10  4.4082370095352265e-11 0.0000000000000000e+00 2.6981082822651021e-11  6.4441441633631759e-11 0.0000000000000000e+00 9.0996934331232531e-11  -9.1091807583887299e-11 0.0000000000000000e+00 -6.9737014520098772e-11  -7.5478907461737249e-11 0.0000000000000000e+00 6.8101414215255393e-11  8.3383461655189912e-11 0.0000000000000000e+00 -2.5669663752928425e-11  -6.4874104382515127e-13 0.0000000000000000e+00 2.4267275226965485e-11  1.0214388256623082e-10 0.0000000000000000e+00 5.2117457472954134e-11  -8.2666949126289904e-11 0.0000000000000000e+00 -2.1670067915652395e-11  -1.0829189442737012e-10 0.0000000000000000e+00 4.5502598061205451e-11  4.1192566443544439e-11 0.0000000000000000e+00 -9.3029588724148775e-11  5.7175988675519769e-11 0.0000000000000000e+00 -1.2762014960473926e-10  -7.0710666598376371e-11 0.0000000000000000e+00 1.2712594709400688e-10  -1.1444706942867255e-10 0.0000000000000000e+00 -1.7336551546733179e-11  -3.3348100142547190e-11 0.0000000000000000e+00 2.9983769757310121e-11  6.2096438762626232e-11 0.0000000000000000e+00 1.1200745239251427e-10  -6.2773164152845199e-12 0.0000000000000000e+00 1.1620982315835344e-10  -6.7449894687826917e-11 0.0000000000000000e+00 -1.2424889985269236e-10  1.0436944995389811e-11 0.0000000000000000e+00 1.5245622103576061e-10  1.0372948237250512e-10 0.0000000000000000e+00 -3.1671744093320886e-11  -4.2830011640462990e-11 0.0000000000000000e+00 -1.4515593062001556e-10  6.2776746555347942e-11 0.0000000000000000e+00 1.3911725888556771e-10  1.7749750350006313e-11 0.0000000000000000e+00 1.1430687242234647e-10  6.5806656483938190e-11 0.0000000000000000e+00 -1.3377931521663041e-10  1.1933069444154409e-10 0.0000000000000000e+00 3.0886937148573960e-11  3.7608175036876571e-11 0.0000000000000000e+00 -5.5855920923763893e-11  -3.5283013658283890e-11 0.0000000000000000e+00 -5.3987760283060306e-11  -6.7695311301253787e-11 0.0000000000000000e+00 6.1667515814266177e-11  -2.7205605311374146e-11 0.0000000000000000e+00 -1.2891300889389844e-10  6.9090952645868074e-11 0.0000000000000000e+00 5.2129119363675502e-11  1.7080746267566331e-11 0.0000000000000000e+00 -3.9148372044657458e-11  1.0795551334911683e-10 0.0000000000000000e+00 -8.0911874184260418e-11  -4.9655799320404860e-11 0.0000000000000000e+00 1.4137692053545780e-10  -1.9316015604454107e-11 0.0000000000000000e+00 2.1381512031142948e-11  4.0329262135703431e-11 0.0000000000000000e+00 6.1444641214152324e-11  </DataArray> 
</PointData> 
</Piece>
</UnstructuredGrid>
</VTKFile>