<?xml version="1.0"?>
<VTKFile type="UnstructuredGrid"  version="0.1"  >
<UnstructuredGrid>
<Piece  NumberOfPoints="201" NumberOfCells="657">
<Points>
<DataArray  type="Float64"  NumberOfComponents="3"  format="ascii">-2.184399634353526 11.68185775125699 199.6406685913969  0.7344520949935273 -11.94525706269815 -200.2659672276111  716.2567323558956 -1.966627507922899 -208.2810282386168  1322.164595021503 7.174869605405064 -201.0799428554391  1759.411794482686 13.20728300216587 -169.8658940997715  2019.977252396751 15.69991005769212 -104.8282187071938  2106.638303080436 16.30744278040465 -20.30959569496859  2020.182702330089 16.80118299378784 63.96846864279959  1759.340183122621 18.08790314635766 130.4232087298729  1321.38607552147 19.39999351604219 167.5811384031998  714.7408032888899 18.17814772141559 188.2041900187365  882.6912167178082 -543.1836952354813 -296.5227069554342  892.8250879274893 442.2246508450928 255.6121660165551  2004.188713138231 -457.2531622644976 -119.3412441329337  1501.01784658154 -505.352834797999 66.44277320663896  1856.425041646409 498.1668802192734 157.5683366482439  1851.348841373486 495.5515854057692 -69.53180679842018  999.3614784521592 491.7949205641365 -118.3051064733902  342.1455040614489 -478.5971073533204 100.2016327078073  1492.194936431265 -471.9941167888839 -256.6343921140806  1033.870652370617 -937.7902805100375 -327.5707075738979  1504.633113735571 -904.8848876770959 -268.6701076590116  1020.81808974214 -1295.51421963354 -312.8806077033582  1424.544592752069 -1205.809271658076 -232.9320035673693  884.3199115192105 -1529.701499294675 -261.4169215561502  1263.97115181351 -1370.014608244599 -174.8354599440971  654.1834642186107 -1632.390664706493 -196.5257932728917  968.966430692248 -1423.296018076791 -116.0844999846717  338.1882988587436 -1598.895017896484 -133.5356178357382  630.444581731418 -1315.497282117093 -63.46579961620449  -40.74036195109806 -1419.115562892076 -72.04975911155617  1494.768238236888 -1115.594397023669 -87.48752055005446  1503.410839306411 500.4870114421096 222.060651812356  1494.302772418456 939.3759077961574 242.5275723655469  1774.219897942756 895.844215366403 155.3279676535531  235.3199348436063 -1065.522206067326 -8.077351629810639  894.4893191103806 -925.1879209569726 7.880502650756405  1057.047018626875 906.9544858093782 300.2132050074995  994.268152088684 1297.719309584486 300.8411437053509  2008.79533197875 -445.3157174905524 -35.62235415804185  1761.781340442966 -933.9561927272628 -130.8619238793599  1851.709759877432 -466.6152004221021 -194.3467481724151  355.9110664586647 486.4658974304812 -109.1366273856508  1492.806856479358 481.6473048508944 -112.4176881785486  1486.395832462369 931.7119163739596 -18.15222181214001  425.2281179704282 -1554.748828733655 -324.544279117188  -325.4775170604427 -1624.486254564389 -132.4657226178857  443.3571005814259 -976.1851574133175 -351.3456311117807  1763.836673686269 906.0185852038062 31.52043526773085  1326.336548189596 1292.914481431058 78.47553237976973  967.3567029490556 1264.458687679919 36.33351620113825  752.175129429169 1554.002403380563 121.0360363966324  347.4798688552596 1466.352502603702 80.19204482905151  110.0792229941709 1670.957303278654 152.7222285550696  -324.3761266088695 1499.418655014445 99.87872991776015  -533.679176797188 1634.146641620308 168.2538610066479  -962.9808412865494 1401.139656563965 106.476469381821  -90.36585201686958 1730.038278426889 231.5142429057751  -706.935523827291 -1370.36341141809 -58.28435327126164  -947.9314590164662 -1503.551774644854 -117.935277847495  -1118.590195321978 1448.642641684726 171.7105013244132  -1492.527281992834 1135.694211150583 95.95359272087619  -1580.309892761296 1130.609297325676 165.6259942875926  -1866.740125055191 742.5176284384321 68.75701261484062  -1891.25688395308 704.7045026472455 149.2255406537481  -1685.118668194851 707.111209480777 -2.804974600926807  -1534.088548554666 1050.37994544507 242.4060172455735  -1988.703716685831 299.9205200584375 -19.52509455588758  -1774.123543843717 581.7692897716964 215.801229429119  -1735.986575354694 187.2307525465427 -100.7542135739166  -1920.419244885316 -247.9651280600814 -123.8017653962177  -1336.182449860434 890.4713595228343 297.3178138227564  -328.2571988979649 -747.0342901280311 59.55173303433182  -1303.741891339443 -1178.105485644124 -32.92039433552992  -1581.121187672228 -333.2618692878901 -194.6889151369475  -1673.14016736377 -748.0881561769656 -208.1648275698213  -2031.075562467293 185.4985887363862 116.0615765235355  -722.3148187420152 1174.969627283491 35.37542890078633  -1503.498263464879 377.747086594657 246.7494778037537  487.0270964286321 1207.435950055726 350.2762267167801  -1957.086564766453 -612.5675930902544 -102.534855234503  -1306.090929901394 107.5639196883175 -148.2577741084029  -1008.358903867726 690.091311078895 310.9809453359467  -1240.092489383442 -809.7755644761762 -277.763161766921  -1267.514232574508 -1178.975697318607 -269.559720526814  -1043.105844638406 1300.518600425215 309.7808424528421  -545.5209146855005 -1682.332982412425 -195.3460905766863  -1086.203988668532 114.329489986976 225.7432421028945  -1559.903059187401 -178.9233470442447 162.9559003827258  -753.6446270368248 -1188.65012514186 -333.2974234120156  -737.9542622658248 -1489.003774253563 -304.2230008641448  -668.9810423556829 -772.3448033430983 -311.5914148280892  1080.121152644193 1509.41942218693 172.6481901402925  -1450.60816141205 -1256.477592723476 -97.04137375930165  -1750.816020448465 -860.1090044357352 -8.151786185787499  397.9204764918346 1525.881933654993 328.2954382687334  -128.1254024608753 1383.752176618728 360.4046968617968  -38.87296565471029 1062.122411179376 358.5703697265882  -618.3796526725462 456.0127965460542 286.6259591046094  -1010.7654832755 -973.9134420413453 26.39571127311804  536.0591500741582 1176.418824231748 16.41805639164311  -1195.784792334066 -1409.22425097774 -228.4266071157724  -156.0990891097666 904.050427840342 -23.23485419861286  -375.3796667605758 381.5175064016403 -118.6834082133958  -221.6973459042067 1627.044795761467 312.1633857880338  -495.83925843383 -276.4113032609949 150.9563153709863  -171.2526202843089 -1447.951405970101 -352.6085040974423  -1040.923348091967 -450.1421602141642 125.6665795893214  -1538.992923935664 -719.0728422391528 61.14882489881874  -1879.161030709371 -353.4410821830102 92.45318649652116  -2023.454690336134 -453.2890467296916 4.820461708441861  -2096.699235435545 -73.26390150677553 -11.11358625644472  -857.2005195376743 758.9814272585363 -41.0604959268337  -1270.52035325848 831.5686535109661 -15.18545139852731  -197.5306255651113 -1643.677616412368 -306.2367475444102  -60.52611324247394 1307.231581876754 48.89648505866932  856.5123652330171 1541.21239141031 261.9619585097904  1842.941493632389 -442.8069545766965 34.14524133205026  108.3640505703411 -524.9238347844648 -293.3060530810185  315.7806301531826 -1690.754609263383 -266.5232503571937  -658.9783708009209 1135.130495492106 354.201587715642  2021.437338525948 460.0046230303022 -7.335377074694877  1362.16457914252 1282.234141991885 219.4810490341062  1595.717291450458 1164.118836508963 124.0628531781317  -1624.328117639476 -1059.723920044411 -186.3791200116371  -681.5984072661157 1627.728411760005 239.5562126325477  -1157.723767457512 1405.551376799946 243.7943778375926  -133.3870330903578 -1101.884944472298 -358.7615417242628  -542.0935867157892 -220.2275326077489 -229.6232999917155  -1115.481708531407 -342.3884496687664 -230.7016093202872  500.0368612199485 1691.104628973588 200.7191617010837  39.04045846275107 -1723.159157402202 -197.3075698363105  1182.771821718979 -1103.876442062261 -39.62917048421185  2023.831182309933 466.1655198975979 73.22146469242071  986.2390890364812 -467.1518209972855 93.67503553958819  -1788.970551538853 -951.6056324174114 -91.87488408365373  -412.4353012917561 -1177.928746802045 -18.64970095268888  1091.229662116558 872.7857164803206 -45.62978372552655  -1843.911050071467 128.1266374826706 173.1089011157461  474.8265864926762 -1315.510986083459 -358.3230238628937  562.2078858539352 877.7505270711741 327.1983501217869  314.606928118487 1684.11480832331 274.0914113201356  -1325.486586309181 1092.917848501986 49.51220622847534  1763.357755818377 -833.2343641720051 -196.7698311702439  -30.74114147294672 484.4155507028725 284.5712942174299  1617.468020650024 -813.9886480673161 -13.72919274330397  -2039.565522313424 404.7973579863497 65.27059697483423  -1099.67006388984 -1503.302633030514 -178.1988860288227  -679.6103480462627 -1632.545551514603 -249.620465424246  1896.520001985709 792.4286735480744 74.42572029478876  -494.1279556294232 888.4339513879326 343.5441984474051  641.3638531234992 807.455626661673 -55.06735028932583  -775.8376605668566 116.2388863381378 -161.7845259467838  -761.0262113620535 1521.426821370846 296.3630074312107  1796.035863706352 -773.5675032394716 -45.40043737086135  -161.1344463574906 -1724.513319165492 -250.4346256172838  -1416.369845461166 448.7762741564475 -80.56309171293626  -991.2976620705984 382.6354561964579 -108.3665046056559  -588.9233108914616 1411.117253281091 342.0854541309643  -1490.730922806127 -1254.303129788339 -156.8369515857636  -0.03197058081037215 0.02463540719672699 -0.05313903894104397  -735.3529455751426 -717.6486501148885 -107.8838387878122  1101.705341030274 289.0224265256123 32.83989938588432  -431.6059732391118 744.2061023298294 184.3716121172324  816.2865447625941 -519.5263836186689 -60.39110064318206  -545.8615356840804 67.11775496734538 -68.91591033961528  -1128.38791449457 129.4020609986025 38.39455984873683  228.0156381572292 844.71232038787 104.8971575814153  766.446445384673 -412.2680507532565 -147.8073210113236  -608.0783049614763 -81.70740496652591 82.3507798537053  581.4835239656734 639.0401809364995 178.1764638885491  -220.7940923379968 -724.6748034694388 -205.3045629573537  173.9537939087418 -1026.267399229698 -176.7382960683759  467.6117865955136 277.0641187676711 -56.452430841144
[...]
<PointData  Vectors="Tidal Force"> 
<DataArray  type="Float64"  Name="Tidal Force"  NumberOfComponents="3" format="ascii">-6.8343129293271487e-14 4.3653711462803700e-14 2.3561747720852970e-14  6.7427624903419041e-14 -4.3068939227601355e-14 -2.3246121502181115e-14  6.8498135327532215e-13 -4.3752720518499341e-13 -2.3615187080628096e-13  1.2037042029902961e-12 -7.6885791603744640e-13 -4.1498501831375713e-13  1.5708892784611203e-12 -1.0033948988154542e-12 -5.4157451172107300e-13  1.7765435344165480e-12 -1.1347551634596383e-12 -6.1247518230272534e-13  1.8262326562742545e-12 -1.1664937538760704e-12 -6.2960583707064015e-13  1.7254738900662072e-12 -1.1021347736409170e-12 -5.9486858323681337e-13  1.4780164442460876e-12 -9.4407300428881611e-13 -5.0955598531580577e-13  1.0855653851907639e-12 -6.9339754543241988e-13 -3.7425587626514402e-13  5.5341029381938354e-13 -3.5348708109734193e-13 -1.9079187423715430e-13  1.1564273625407720e-12 -7.3866015405027764e-13 -3.9868601358234282e-13  4.5241417462137431e-13 -2.8897649324565458e-13 -1.5597279138367183e-13  2.0299105852928581e-12 -1.2965916530601351e-12 -6.9982515581515956e-13  1.5634247691237517e-12 -9.9862699397711100e-13 -5.3900107255190187e-13  1.2878288841467386e-12 -8.2259198698326210e-13 -4.4398756085171552e-13  1.3529653261062409e-12 -8.6419744860636236e-13 -4.6644378181722047e-13  6.2964904298281099e-13 -4.0218406633464214e-13 -2.1707568934655291e-13  5.3229556558992917e-13 -3.4000019129180211e-13 -1.8351243144778597e-13  1.6342189313337709e-12 -1.0438462861331019e-12 -5.6340783014919909e-13  1.5163077786470591e-12 -9.6853133507862836e-13 -5.2275717716025565e-13  1.8892910485869490e-12 -1.2067718753462510e-12 -6.5134563661915983e-13  1.6995152232661047e-12 -1.0855538508448886e-12 -5.8591916045447212e-13  1.9763995959029107e-12 -1.2624118706142078e-12 -6.8137688683278926e-13  1.6958144541981302e-12 -1.0831900096401553e-12 -5.8464329573984103e-13  1.9107981358406260e-12 -1.2205093818240206e-12 -6.5876034778795891e-13  1.5335909514671313e-12 -9.7957084478869199e-13 -5.2871566577518257e-13  1.6664940940299979e-12 -1.0644618279487276e-12 -5.7453490684237661e-13  1.2216170878245520e-12 -7.8029965003627338e-13 -4.2116060432777053e-13  1.2966884477924536e-12 -8.2825097332286575e-13 -4.4704195425886267e-13  7.7423092143951006e-13 -4.9453476303474585e-13 -2.6692125217680444e-13  1.9435576923939181e-12 -1.2414343269386950e-12 -6.7005442248043399e-13  9.6037863677093906e-13 -6.1343535682623258e-13 -3.3109691332675547e-13  7.0285064266244243e-13 -4.4894109288690587e-13 -2.4231242700035758e-13  9.9641269579798886e-13 -6.3645186824247718e-13 -3.4351989449447999e-13  7.9809216283852177e-13 -5.0977596954589272e-13 -2.7514757362218837e-13  1.2874752766310812e-12 -8.2236612257495640e-13 -4.4386565231222848e-13  3.2376885406210697e-13 -2.0680516508425826e-13 -1.1162146273030069e-13  5.2237033545867157e-14 -3.3366051769429095e-14 -1.8009064244218470e-14  2.0021693490987574e-12 -1.2788721261236067e-12 -6.9026118039540439e-13  2.0876454891164104e-12 -1.3334694322737685e-12 -7.1972964735140201e-13  1.9250150955454775e-12 -1.2295903686511043e-12 -6.6366173906733400e-13  7.1549816627040420e-14 -4.5701961302507158e-14 -2.4667274476200952e-14  1.0619802482902793e-12 -6.7833269880173098e-13 -3.6612474367935963e-13  7.7843061618026185e-13 -4.9721728963749955e-13 -2.6836912483071181e-13  1.3299905254656580e-12 -8.4952245013247491e-13 -4.5852306671055056e-13  6.5934723035945357e-13 -4.2115358259932770e-13 -2.2731433668346903e-13  1.0321222109408053e-12 -6.5926107944835910e-13 -3.5583098700267530e-13  1.0188740389500835e-12 -6.5079889921937282e-13 -3.5126359172189477e-13  4.1000064849678123e-13 -2.6188514038093641e-13 -1.4135044656520213e-13  1.2668836937672569e-13 -8.0921338833238922e-14 -4.3676656736210119e-14  -2.4630458844030543e-13 1.5732538950036451e-13 8.4915142682679984e-14  -5.3668417393493628e-13 3.4280338518118479e-13 1.8502543332141927e-13  -8.7824965830560362e-13 5.6097602747249831e-13 3.0278240254590200e-13  -1.1441625100798918e-12 7.3082606251836042e-13 3.9445762424013571e-13  -1.4213956462937840e-12 9.0790685266299481e-13 4.9003558917794696e-13  -1.6460429853847225e-12 1.0513988206628847e-12 5.6748425131204552e-13  -1.1087775388213086e-12 7.0822415152284128e-13 3.8225842039146957e-13  1.6476657048058897e-13 -1.0524353217146984e-13 -5.6804369460969151e-14  4.7368875282365994e-14 -3.0256548613988048e-14 -1.6330734351280826e-14  -1.8272741030669443e-12 1.1671589709690253e-12 6.2996488276912928e-13  -1.9553333070591628e-12 1.2489559211385725e-12 6.7411414384335066e-13  -2.0497319819239492e-12 1.3092524360572143e-12 7.0665871394640417e-13  -2.0538057342618646e-12 1.3118545178022155e-12 7.0806316712049431e-13  -2.0782482482893539e-12 1.3274670082722208e-12 7.1648988616503494e-13  -1.8547053271925234e-12 1.1846804797941622e-12 6.3942197946933404e-13  -1.9879475454553352e-12 1.2697880452635324e-12 6.8535811913603641e-13  -1.8873728489129731e-12 1.2055466382820174e-12 6.5068432454194266e-13  -1.9280231813978502e-12 1.2315117631381980e-12 6.6469879664297018e-13  -1.5806401268038344e-12 1.0096231872253075e-12 5.4493618144692716e-13  -1.4924659130023305e-12 9.5330250469944350e-13 5.1453753563484357e-13  -1.7434981854875883e-12 1.1136476703985250e-12 6.0108257879066509e-13  1.1196764006052666e-13 -7.1518572575144071e-14 -3.8601587537565830e-14  -4.6775977201318691e-13 2.9877838975952250e-13 1.6126328800140957e-13  -1.1289089475209214e-12 7.2108295263131200e-13 3.8919885724226448e-13  -9.7469731918577428e-13 6.2258131834611676e-13 3.3603337418598295e-13  -1.9013282359350091e-12 1.2144605473276151e-12 6.5549553690169713e-13  -1.2898536504692690e-12 8.2388529277328624e-13 4.4468561248877812e-13  -1.5887101284625335e-12 1.0147778461874614e-12 5.4771836811521974e-13  -3.5284217336313572e-13 2.2537555109317083e-13 1.2164468264812330e-13  -1.3284065575530559e-12 8.4851070134458510e-13 4.5797698325284843e-13  -1.1485801820563228e-12 7.3364782060568606e-13 3.9598064599372697e-13  -1.3514782369650518e-12 8.6324758047828229e-13 4.6593109795937789e-13  -5.4338334097814227e-13 3.4708243280703054e-13 1.8733501565170064e-13  -3.6482607738691869e-13 2.3303018871163964e-13 1.2577621315073798e-13  -1.7207122984512602e-12 1.0990933392112667e-12 5.9322699290372100e-13  5.1930896628202217e-13 -3.3170508884430213e-13 -1.7903521508662591e-13  -1.0736928917541060e-12 6.8581407057273227e-13 3.7016275530236771e-13  -1.3034505860370780e-12 8.3257024337758787e-13 4.4937324632905271e-13  1.0587880927722222e-13 -6.7629373106099902e-14 -3.6502422686399052e-14  2.7751892858956062e-13 -1.7726333809107308e-13 -9.5676493757396572e-14  -5.8185390110622810e-14 3.7165524281749106e-14 2.0059799675589046e-14  4.7737014613735237e-14 -3.0491695121265184e-14 -1.6457652830746756e-14  -5.3262010947416249e-13 3.4020749150216485e-13 1.8362432010731513e-13  -1.0400420505038146e-12 6.6431982338780796e-13 3.5856140429118582e-13  -6.0043524946323339e-13 3.8352395336900533e-13 2.0700404000893405e-13  -9.8772751394081701e-13 6.3090426709053110e-13 3.4052562036707979e-13  -7.3102783332790145e-13 4.6693908279257805e-13 2.5202670061948023e-13  -8.7564361935459498e-13 5.5931143772361532e-13 3.0188395330968259e-13  -3.4445247175877353e-13 2.2001668595364457e-13 1.1875227730029447e-13  -1.9282750662035234e-13 1.2316726528537032e-13 6.6478563560260473e-14  -1.8710197122984651e-13 1.1951011829061278e-13 6.4504647208566650e-14  -6.3025453530414209e-13 4.0257082045845314e-13 2.1728443684567448e-13  -5.0170124957771701e-13 3.2045827892387613e-13 1.7296483781216985e-13  -1.1897342841525476e-12 7.5993472489287736e-13 4.1016879601402370e-13  -3.2206863162380943e-13 2.0571915950459677e-13 1.1103529975276724e-13  7.6120557062303782e-13 -4.8621490832332196e-13 -2.6243067597570064e-13  -6.9106534012005616e-13 4.4141331062104705e-13 2.3824936567745479e-13  -9.5500670889609050e-13 6.1000407423978068e-13 3.2924490551454871e-13  -1.4629178877213778e-12 9.3442890345746295e-13 5.0435065767770964e-13  -1.5066925605843236e-12 9.6238967959250849e-13 5.1944226687420464e-13  -1.7765629101708310e-12 1.1347675395916003e-12 6.1248186222269729e-13  -1.1527605010427917e-12 7.3631797107647776e-13 3.9742183872766244e-13  -1.5598499424586136e-12 9.9634359763013061e-13 5.3776862731708795e-13  8.3324462504571378e-13 -5.3222936695786856e-13 -2.8726661843119191e-13  -7.9298180764648833e-13 5.0651176474092723e-13 2.7338574472960210e-13  -1.9088508725352254e-13 1.2192655805618441e-13 6.5808901583078386e-14  1.8355911455927459e-12 -1.1724714256136941e-12 -6.3283223841706352e-13  4.7344171195655691e-13 -3.0240769045736562e-13 -1.6322217453316664e-13  1.2931862802058751e-12 -8.2601398747074243e-13 -4.4583455872394336e-13  -1.3084882821505519e-12 8.3578803768769598e-13 4.5111002552174442e-13  1.5019309689693765e-12 -9.5934824516285836e-13 -5.1780067654111247e-13  4.0475950696334013e-13 -2.5853739668522772e-13 -1.3954352821280562e-13  7.0182857162403574e-13 -4.4828825192591275e-13 -2.4196006122184030e-13  -7.6593325466799023e-13 4.8923468452203893e-13 2.6406057644884210e-13  -1.5676922790044927e-12 1.0013528370417314e-12 5.4047232492571091e-13  -1.8589340855646986e-12 1.1873815705948590e-12 6.4087987200319938e-13  6.0368068830556749e-13 -3.8559695547263269e-13 -2.0812292660422582e-13  -2.7906414499359728e-13 1.7825033461503893e-13 9.6209217375154892e-14  -7.0858102199151885e-13 4.5260133391465387e-13 2.4428801333204436e-13  -5.6528278725604148e-13 3.6107055595702949e-13 1.9488499519993061e-13  1.0501465063621861e-12 -6.7077397620596718e-13 -3.6204498255652702e-13  1.6515263238466960e-12 -1.0549012660081176e-12 -5.6937466866409085e-13  1.4764470081491977e-12 -9.4307053759989766e-13 -5.0901491179808260e-13  1.0868926243591214e-12 -6.9424531047181374e-13 -3.7471345078321857e-13  -9.9733788806498280e-13 6.3704282854366052e-13 3.4383886067313782e-13  3.0162721085567531e-13 -1.9266234028473483e-13 -1.0398798418242211e-13  4.7618822512611435e-13 -3.0416200716297262e-13 -1.6416905318918223e-13  -1.7238172630750457e-12 1.1010766143581698e-12 5.9429745007921662e-13  1.2501478860056680e-12 -7.9852350435025120e-13 -4.3099678648638022e-13  -9.7653801584262051e-14 6.2375705088250253e-14 3.3666796658331271e-14  -7.4441163559860156e-13 4.7548789594529799e-13 2.5664085534006401e-13  -1.7723922790615026e-12 1.1321035771867895e-12 6.1104400944874760e-13  2.0527691314077456e-12 -1.3111923947422508e-12 -7.0770579140199817e-13  -3.8099030039717079e-13 2.4335497680090014e-13 1.3134893638728815e-13  1.8602807004873385e-12 -1.1882417117662148e-12 -6.4134412644124582e-13  -2.0153206423180669e-12 1.2872724256927836e-12 6.9479517607632563e-13  -6.6473369005001402e-14 4.2459414728475106e-14 2.2917135443565478e-14  3.9150164709547674e-13 -2.5006902839026033e-13 -1.3497279297203908e-13  1.1843478244619871e-12 -7.5649416020745411e-13 -4.0831177826183793e-13  -1.0250888121362247e-12 6.5476854354616966e-13 3.5340617605287886e-13  1.2481376514988493e-13 -7.9723948065919839e-14 -4.3030374478929645e-14  -6.8896791471896546e-13 4.4007359433616542e-13 2.3752626434049757e-13  -1.5945761380715883e-12 1.0185247201389434e-12 5.4974071388670978e-13  2.0025713960001209e-12 -1.2791289308618174e-12 -6.9039978873482116e-13  8.9303335882322116e-13 -5.7041901615946949e-13 -3.0787918148445494e-13  -1.4541794225399294e-12 9.2884726794262150e-13 5.0133801377038678e-13  -1.0399354838552606e-12 6.6425175466201722e-13 3.5852466473134039e-13  -1.3974811215704953e-12 8.9263161178895256e-13 4.8179089795264036e-13  -5.5075581548266836e-13 3.5179155101855417e-13 1.8987672520100519e-13  -2.4219692853239596e-17 1.5470164952443018e-17 8.3498999648639047e-18  -2.0729635113087770e-13 1.3240914182795976e-13 7.1466793799270171e-14  7.8562386495767391e-13 -5.0181192862837501e-13 -2.7084904512027644e-13  -8.4288890673987392e-13 5.3838958664193134e-13 2.9059154859720065e-13  1.0146985639021849e-12 -6.4813184278157167e-13 -3.4982406896795229e-13  -4.9003704549959687e-13 3.1300784748277960e-13 1.6894352598909142e-13  -1.0624065148844963e-12 6.7860497370489376e-13 3.6627170191874114e-13  -3.0253787130695706e-13 1.9324401848694671e-13 1.0430194042110099e-13  9.3813527085452375e-13 -5.9922755733390878e-13 -3.2342836519902443e-13  -5.0687457597116896e-13 3.2376270615771794e-13 1.7474837644466479e-13  9.6278123030198035e-14 -6.1496999718951478e-14 -3.3192522340326997e-14  2.7233107038039669e-13 -1.7394962875825976e-13 -9.3887945184922731e-14  7.7369324425816825e-13 -4.9419132537280167e-13 -2.6673588439758447e-13  2.6881921491667693e-13 -1.7170645484015552e-13 -9.2677209690017448e-14  3.0013043383734502e-13 -1.9170628409067388e-13 -1.0347196036459352e-13  3.7684873291926681e-13 -2.4070957859403236e-13 -1.2992110349329643e-13  -1.1179180509041214e-12 7.1406259177589325e-13 3.8540967263820920e-13  -7.3086798335506999e-13 4.6683697970389183e-13 2.5197159127971214e-13  9.4304702456516049e-13 -6.0236490678626424e-13 -3.2512172491189892e-13  -4.7012845797423391e-13 3.0029137189187149e-13 1.6207990821797329e-13  -4.6121076706567090e-13 2.9459525715638186e-13 1.5900547505091037e-13  4.7262793027668811e-13 -3.0188789291496353e-13 -1.6294161789434722e-13  2.8453779557842939e-13 -1.8174659189429101e-13 -9.8096294767214112e-14  -1.2373695760562991e-12 7.9036144532134226e-13 4.2659137926491803e-13  1.3806823426074886e-12 -8.8190150537793794e-13 -4.7599940733701070e-13  -6.4241282111646841e-13 4.1033684326457957e-13 2.2147608662803616e-13  -9.2045973901022980e-13 5.8793743095161595e-13 3.1733460820466682e-13  1.0982952557544263e-12 -7.0152866413142390e-13 -3.7864458368667649e-13  1.3522920186449206e-12 -8.6376737802068443e-13 -4.6621165459819719e-13  -1.2332231646398242e-12 7.8771295308148403e-13 4.2516187639093333e-13  5.0834713329664588e-13 -3.2470329218682650e-13 -1.7525605036252851e-13  3.0249427585982123e-13 -1.9321617219003229e-13 -1.0428691060116423e-13  3.2509124929189376e-13 -2.0764983609066163e-13 -1.1207736726838226e-13  1.0368595828628990e-12 -6.6228704371305698e-13 -3.5746422743580274e-13  -1.4814362648769651e-12 9.4625739158010104e-13 5.1073499119084459e-13  9.9881044539045982e-13 -6.3798341457276893e-13 -3.4434653459100149e-13  -9.6642387210710772e-13 6.1729670999836230e-13 3.3318104835798555e-13  -3.3838301672975170e-13 2.1613986261656239e-13 1.1665979236909958e-13  7.3006873349091307e-13 -4.6632646426046135e-13 -2.5169604458087159e-13  -1.9106431298063653e-13 1.2204103727683248e-13 6.5870690842818376e-14  2.6329228100756771e-13 -1.6817616319800804e-13 -9.0771762518035527e-14  </DataArray> 
</PointData> 
</Piece>
</UnstructuredGrid>
</VTKFile>