<?xml version="1.0"?>
<VTKFile type="UnstructuredGrid"  version="0.1"  >
<UnstructuredGrid>
<Piece  NumberOfPoints="201" NumberOfCells="657">
<Points>
<DataArray  type="Float64"  NumberOfComponents="3"  format="ascii">-0.7637937134435034 -0.1674468778887942 199.1957085763401  -0.3058830078287789 -0.05766313155933836 -199.7220991821695  657.928719161273 -0.1015494795256531 -197.2034149533321  1223.986900020617 -0.1848137276416401 -182.0418535322122  1641.090703047138 -0.1728998703446945 -147.1912661891853  1893.495451221278 -0.2237602068830789 -82.43712012277052  1978.033248934933 -0.488097868848309 0.1572725365831939  1893.626074451515 -0.6008887112919323 82.35432993635754  1641.076672098881 -0.3462845809390577 146.8290254047159  1223.83005875863 -0.3272480980751784 182.0826033563693  658.0609343876361 0.2886650482478283 196.4799711229822  822.1512492803848 -585.6306951651579 -189.8129859329336  820.4088031836965 456.0861514061211 191.3111977568809  1886.108136432111 -496.1737275879982 -40.40197285657504  1401.573475520998 -555.5990751972794 161.4664253077539  1734.104178161955 506.3589402966313 110.326926529132  1728.012508187274 505.8945030451421 -111.8495662023806  916.2409865076436 523.329478382555 -188.5642619283122  320.6774250788887 -530.7457357611016 196.7781562529809  1394.333566597112 -512.9489234670314 -163.5370777200824  972.7437743447862 -1008.622458181462 -166.8896285808441  1417.33404469272 -970.944064512025 -124.115235065169  969.5188483235769 -1385.825511633431 -119.7274078014043  1350.304693687628 -1286.801241500231 -61.67209605189733  846.1928237835538 -1631.354355271446 -52.27798865738023  1202.022507827471 -1460.612811653839 13.36179239012406  630.8549011984107 -1740.055300169285 23.82349499068606  922.7465545767038 -1521.130670837348 89.01159188048314  332.4941930345069 -1706.773068351416 93.64501348276404  601.1841184675899 -1412.947373393331 146.3035405313958  -23.51280838848217 -1517.9982608967 146.2931074999363  1413.248579126741 -1192.855302296717 75.53122233914634  1395.155976885495 512.3815519503955 163.5957943854669  1390.080956820767 978.0160408196152 128.1087466787643  1658.654847127373 925.5080134418523 60.95880014799467  229.846099557986 -1151.716601467462 178.5606947348013  839.0208462946267 -1004.241012808296 172.8532021473431  975.2235254776008 952.7362997574942 170.5894142651196  919.6655149683644 1368.017534359513 128.635496300451  1889.980657295524 -484.2005307057415 40.36457711102439  1664.347314491015 -998.0505132224945 4.671169216300923  1738.479481462423 -506.9171606943358 -108.9027746287449  320.1854461753676 530.9233303404031 -196.0077258353512  1382.350851260014 500.5827701971404 -165.3947474401675  1379.924717082975 973.3794194232718 -130.2691652943876  413.9811660741129 -1659.597035469517 -104.6764259451857  -290.174780529993 -1726.545313596726 89.04316019752525  421.4640233352306 -1047.732530077179 -181.855215537234  1647.835571381936 937.436481438461 -63.09104153200693  1233.885569115517 1354.495804398067 -75.28115313904827  890.5820060195105 1337.173965661343 -137.0547676746399  692.2365579352314 1643.504582722648 -80.28503732276556  310.1082258422439 1562.321010181463 -133.5919357948153  88.52642435598239 1777.424083853231 -73.00776125248093  -317.7261187533566 1603.815742630871 -124.2886468557017  -516.5192372493702 1742.4590745839 -55.71184983812027  -916.143199938312 1498.252983682493 -98.6989137958992  -99.98390868505932 1840.175842500414 5.110825718759513  -646.1472723103724 -1454.482510433428 136.7439824453617  -877.0411417498879 -1585.372197505676 71.92603062198056  -1065.688072832419 1544.542454359071 -27.61853774016257  -1412.083214240559 1213.552190310983 -69.16725881671665  -1496.822849523226 1205.625969784658 6.240479600771941  -1759.947511479744 796.5145653715007 -43.83822128736223  -1783.201824801824 756.0074483186244 40.46683911493493  -1583.208514735444 763.9006604182492 -118.8557752139099  -1450.202140513485 1122.749295371335 86.17533657195892  -1867.738064358682 332.7668560877419 -78.64152117817393  -1667.008967915679 628.2958071148762 114.8273026411969  -1621.079500387814 217.5941470446117 -147.3561257314586  -1795.963118124687 -242.3856638303523 -110.098614338802  -1256.867607262759 957.0998586298994 148.4728156078189  -292.1681483873523 -808.6349537758972 190.6868617921684  -1208.992408518016 -1236.521832735421 114.9920784731423  -1469.134677505453 -333.8062289884675 -162.3834173184413  -1559.390883213946 -772.4769672622622 -122.7784659378026  -1907.371112449934 211.5711804748833 68.17094387751108  -683.9647482493518 1265.798058379186 -160.312329684678  -1403.021271618377 412.7401112151746 166.7100653975735  441.9340458956372 1283.783852796544 167.0628392826434  -1832.710179699041 -625.1474393090748 -46.26907664540673  -1210.892650432582 135.5204370460731 -182.901539048849  -942.9662530812701 744.3068116462925 181.3913933870647  -1147.195195454878 -845.8426437521712 -166.8371377711447  -1176.97673200049 -1235.87029967357 -120.2853041369308  -990.7532241332683 1390.773237893515 115.9738069707635  -498.9511550860435 -1781.025994401787 17.48104929488935  -1004.01719838682 126.2818473201368 189.7267047280032  -1448.040292194009 -178.2659814237149 167.4899333153788  -691.5256704685413 -1258.263412271305 -160.2506564836475  -679.2424725978216 -1574.775173624119 -107.4590965411751  -611.3136284512464 -814.9635080376867 -188.1629616163809  1003.520390227086 1587.079022834092 -7.631640238954417  -1352.137000879492 -1312.491819368556 47.64110909956843  -1634.283616800768 -890.0826422000417 82.75297450274708  359.3061833525241 1620.86318769307 118.5146098767973  -132.762352349441 1478.605637546427 150.5110979822076  -46.89190674692446 1135.891948814978 181.6597948177694  -574.781270332498 488.8025649185199 195.5035651378335  -927.8425509489143 -1032.452080993806 167.832771499228  484.617018686823 1256.698917411814 -167.8999616742541  -1112.288237341458 -1478.9300502846 -58.43294119990697  -155.0457073006399 980.8751822494789 -187.2746177891342  -350.1885705683004 427.0061689956753 -197.7803891704874  -222.8554452542731 1734.120213033441 88.76869713117358  -450.921872266031 -303.6104382758683 196.9672508992663  -146.4329313981216 -1543.136691482507 -141.0696796860096  -955.4657487730396 -478.1178725870274 188.3823092578863  -1427.668889289446 -749.461402137848 146.1484413083251  -1755.144030980149 -356.3028298395347 115.7065909457804  -1896.175641405183 -457.8970724259103 38.34717915255042  -1968.414775146427 -58.97398150285235 -23.91483072685189  -801.0047449808636 829.1154814602563 -183.448839825  -1190.60740120507 901.4724704325997 -159.7101417357513  -170.5944846679935 -1747.330853604534 -86.03458857669673  -70.0157430521412 1402.43502619175 -161.1192232801716  792.2004191161991 1626.309300021982 69.24339582843994  1728.590337622221 -484.4721141370833 113.1732588138485  105.2872013233945 -557.4358688549024 -196.3166591270221  312.6973370931258 -1800.755713160114 -41.42552162258848  -625.6713020399869 1218.065978886613 166.6284787240571  1893.893267059805 464.8886733834279 -41.3001147487286  1269.265295112174 1341.166382394554 68.89581016744512  1490.821993564135 1210.928489276891 -3.115556352787044  -1516.580002100236 -1101.278570805959 -67.45049714151298  -656.3302343204845 1734.522168543002 20.85028180366615  -1102.234247668576 1498.74692223146 49.12034170693781  -112.6109108591681 -1176.681220886121 -178.3055501361034  -497.1803038658106 -219.8282715513337 -197.9000512977437  -1028.793388106234 -346.6179983660397 -187.7045289664547  456.2801057565214 1791.263348961342 -13.92199266165771  52.48116472326769 -1832.934822121375 29.90294131237929  1115.336875149454 -1187.064271666968 136.7581070906712  1896.526675865515 470.9224796943771 36.64559060122192  916.215324665054 -519.4378011056542 189.0277555118875  -1673.269718485529 -983.8993176448809 6.755929902363695  -369.1444034946486 -1260.848061829764 169.9989964555892  1002.911282674312 923.993251504357 -170.4303393996803  -1724.914139503837 150.3289577916185 130.4537776161495  456.7647121874624 -1408.893067343837 -152.9239233751742  512.2269435102394 930.0025968071764 185.6834423014414  281.6111863119879 1787.16176730345 55.89899776278028  -1250.519515800712 1172.978331904303 -120.5311083059059  1663.107705256606 -892.5018514780338 -69.80766848440332  -32.86605757855661 512.2030983939902 196.1872554230704  1520.851063083525 -877.1874376089067 117.1121833000291  -1919.662354450632 441.2049224916774 -6.336960331885177  -1022.149604966843 -1579.949876805008 2.301112198374963  -625.6375726645371 -1725.797618546038 -44.64883127413897  1775.352907686586 814.6161501220218 -2.021930173228276  -467.1491880138685 953.6904992159721 185.703638789256  581.887281200389 866.3345207005127 -187.2752265857011  -716.0931114700562 144.8054514544577 -195.6313715823512  -729.2371622202267 1623.469852505108 83.68561217598851  1691.953310312391 -830.8898658181115 73.4402714148995  -136.1965190660413 -1831.792118316887 -27.02589417295301  -1319.826281380168 497.1967538432498 -169.9750550965596  -919.7842962918555 429.6739294313547 -190.2404065210022  -564.9875802034443 1509.045073527117 131.9631602536866  -1391.338255140897 -1308.496447770891 -15.00374110962462  -0.03877781881350245 0.100953848371785 -0.07518090209575229  -670.9956262007371 -762.3995407763857 5.839606376840216  1014.393789016716 297.394738248309 -1.033303714862646  -406.452642413911 803.6777717694821 47.1509303535312  758.9983193842469 -569.6398477916657 42.9933649289954  -502.4299519379535 84.59009603696491 -90.44524400082646  -1043.608118952161 151.2600308373043 0.05474842161252221  200.3212341196905 908.0818065234541 -41.16950672181645  710.9050989258573 -449.2589588510609 -63.24859426779743  -557.3431577530278 -85.98138038128883 88.50951084842292  529.3925247796662 677.2222676090905 74.03031591782209  -195.5700141272306 -774.1688755057921 -79.90329079275821  172.3674993960074 -1104.722729266259 0.3482147029592418  425.5417048326378 299.1932230738
[...]
<PointData  Scalars="Pressure"> 
<DataArray  type="Float64"  Name="Pressure"  format="ascii">-1.9875506180577152e-02  -2.0007112716708290e-02  -1.7508110764223796e-02  -1.2692159012610482e-02  -6.4688669550490817e-03  -2.9125404345712817e-03  -1.5670993951022890e-03  -2.9343237946901023e-03  -6.5718917682404711e-03  -1.2641087897192718e-02  -1.7971166644885392e-02  -1.4649911568178112e-02  -1.5296371354782136e-02  -1.9551332133743433e-03  -8.6451403760954039e-03  -4.1362834172028263e-03  -4.4083576597030612e-03  -1.4018707270426041e-02  -1.7969508360066673e-02  -9.0797255029515158e-03  -9.7975203557461848e-03  -5.4275770610411889e-03  -5.4348041019752005e-03  -2.9113074410585665e-03  -3.0024816900615322e-03  -2.2163064915087039e-03  -2.6423735754447036e-03  -4.1202342020522607e-03  -4.7288216649488462e-03  -7.5954366411693681e-03  -7.5228237835565726e-03  -3.2106365092415571e-03  -8.8885408498906669e-03  -5.8417056171012642e-03  -2.9036241626179322e-03  -1.2627544443862075e-02  -1.1588984490924744e-02  -9.9059382919255597e-03  -6.0511253087970470e-03  -1.6526935123696927e-03  -1.7912758915206222e-03  -4.3590910016588309e-03  -1.8160479089664117e-02  -9.0352811867631180e-03  -5.8179187169825524e-03  -5.2092929696343692e-03  -4.6150213240789334e-03  -1.3009033298941113e-02  -2.5924424101910295e-03  -3.3288332255810623e-03  -6.6914895151439493e-03  -3.9495314481810106e-03  -6.5884358833683022e-03  -3.7338113103549623e-03  -6.1160156859887977e-03  -3.3622329854796152e-03  -4.2429494046475743e-03  -2.7096441376708489e-03  -6.9260662974250688e-03  -3.6379746456123609e-03  -2.4417676459075181e-03  -2.8980092728613273e-03  -2.0757853313679458e-03  -2.0541135640272431e-03  -2.1036066932648098e-03  -4.8026672676581925e-03  -3.2092841440234839e-03  -2.8421721944890941e-03  -4.6249893971445173e-03  -6.5826792832318123e-03  -4.2605651500841257e-03  -6.9990783275141960e-03  -1.6168426567901989e-02  -5.0849691814896323e-03  -8.7703677051330607e-03  -5.0966690746293303e-03  -2.2648573272201519e-03  -9.1886444002852140e-03  -9.1960259906194997e-03  -1.0096560040964193e-02  -1.7674921276244575e-03  -1.2469752176044782e-02  -1.2445028136878929e-02  -9.4586816416029409e-03  -5.4511615832741056e-03  -5.5559985884190404e-03  -2.7414386895875924e-03  -1.4950953301995496e-02  -9.1424044063898573e-03  -9.2030843121570227e-03  -4.9552665315153186e-03  -1.4442554309375629e-02  -2.4690722730383273e-03  -2.9383260436632338e-03  -3.0885484356948396e-03  -5.8792454490993835e-03  -8.5554020059402901e-03  -1.2690465015551353e-02  -1.6454560848715997e-02  -9.9084959943888887e-03  -1.0545869759333019e-02  -3.2609507280574024e-03  -1.5033241048135507e-02  -1.7754013799564365e-02  -4.3964612287568008e-03  -1.8808034248573195e-02  -7.3136315417268441e-03  -1.3723198278447889e-02  -7.6732075793786471e-03  -4.1406299919115631e-03  -1.9286750360280869e-03  -1.2329818491582634e-03  -1.2723686629796404e-02  -8.4634628422706314e-03  -4.3635377752836530e-03  -9.3894145233245994e-03  -3.5458762984774401e-03  -4.4500301396780259e-03  -1.8660695978225575e-02  -2.9119452275223009e-03  -1.0261478300746515e-02  -1.5496260010057119e-03  -3.0909145754258764e-03  -1.8856466857767600e-03  -2.7334394738941338e-03  -2.7303845780716602e-03  -3.0027784664078284e-03  -1.3108281965556355e-02  -1.8098119450978441e-02  -1.4226413720450814e-02  -2.8399889516302988e-03  -2.8278908867664940e-03  -6.1958019644200299e-03  -1.5507236699454302e-03  -1.3676212713961741e-02  -1.5609602311010724e-03  -1.0762600958326348e-02  -1.0469009346520574e-02  -5.3198791657632638e-03  -8.2942568379022266e-03  -1.4340612500018840e-02  -3.5475949836977060e-03  -5.2406646513150782e-03  -2.9484025906841276e-03  -1.9147326322184213e-02  -5.1579038215433960e-03  -1.1977714902327984e-03  -2.2248346404971520e-03  -2.9769668868658617e-03  -1.8931626611764045e-03  -1.3865056736551367e-02  -1.3871681470235304e-02  -1.6935856020531211e-02  -3.7180679143007573e-03  -2.9173372063647659e-03  -2.7474540512718989e-03  -1.0074086717922488e-02  -1.4169802104851996e-02  -6.0278437144206413e-03  -2.6354302398565710e-03  -1.2599293803560615e-02  -7.5145562642350951e-03  -7.4104253659772988e-03  -8.9409837124937545e-03  -8.5076404428531573e-03  -1.2655281497286602e-02  -7.3576431572909429e-03  -8.4303908915110744e-03  -9.7204291880371354e-03  -1.2077528491525017e-02  -9.8377699765004305e-03  -1.0455218748233087e-02  -7.0470599645655052e-03  -1.2882647040691034e-02  -1.0257219238234153e-02  -1.3775894008769126e-02  -7.4228854661042946e-03  -7.7068255482287745e-03  -8.4492572110348822e-03  -1.3271245071940102e-02  -6.2391541370195565e-03  -7.5051698671848863e-03  -5.3627097789742230e-03  -8.0123473577200371e-03  -5.3335262384870295e-03  -1.1322944722727393e-02  -6.3164432190234215e-03  -7.4356248228729001e-03  -5.5680648691505573e-03  -7.4819203960894629e-03  -1.4161317598749107e-02  -6.2477626079580142e-03  -5.6707081276495229e-03  -7.0107933209140145e-03  -4.9277027510742479e-03  -7.5014629103920373e-03  -5.6491006962375544e-03  -1.1549556237046611e-02  -5.8864928186513959e-03  -1.0219110210723565e-02  -1.0545703952004883e-02  </DataArray> 
</PointData> 
</Piece>
</UnstructuredGrid>
</VTKFile>