<?xml version="1.0"?>
<VTKFile type="UnstructuredGrid"  version="0.1"  >
<UnstructuredGrid>
<Piece  NumberOfPoints="201" NumberOfCells="657">
<Points>
<DataArray  type="Float64"  NumberOfComponents="3"  format="ascii">-0.005329979725098639 -0.01450673681183471 618.7838100214033  -0.0022092830350575 0.01237052123757192 -618.7875731886288  1159.804039937335 0.01277542564727385 -588.5655234601772  2205.91185046393 0.007433578888417984 -500.7979513105258  3035.880293011608 0.001853264031675912 -363.992038811156  3568.619531056348 -0.000604294893508031 -191.4081623561819  3752.165975643019 -0.002846359521461346 0.002163506384018094  3568.621032199971 -0.004284040726299019 191.408145074363  3035.880059964377 -0.004528311757609923 363.988239242217  2205.910511423198 -0.00687430361119604 500.8041756591188  1159.804757716792 -0.008344911253914218 588.5609990741998  1469.292241837821 -1091.425860200145 -537.3148935146044  1459.74729476427 847.7874521093212 550.8308294220881  3571.509553716899 -971.487948888802 -91.31565826745837  2571.784203660773 -1060.164199122255 413.5345071442017  3248.623316362838 982.6055304162685 259.8672405499204  3235.127280319989 982.5943096754351 -265.5266280389177  1640.632998025323 976.9245588654052 -531.7660249915223  565.3527463928741 -976.9490815139667 589.3260317725184  2555.128114011111 -976.8741608137161 -420.9372940620108  1778.573641089461 -1916.658215834576 -434.3655522668542  2642.429168054106 -1878.557600466758 -299.019272726937  1811.842540063675 -2685.326406799756 -286.686199214332  2552.770611404828 -2520.105851021267 -140.6237847473242  1601.770944187755 -3196.936316537481 -118.8741731849276  2280.719924661526 -2869.067980684857 32.02495111856441  1197.970642781133 -3415.555731628857 56.86558961910325  1737.715223354623 -2967.418193718051 210.4576236220943  625.9723959247698 -3325.194031777129 223.9054214043331  1112.145480075864 -2712.460639106509 368.4586535213094  -43.21443928009118 -2913.626691344008 369.2903113753694  2664.929877844173 -2331.155719100292 177.4949335267216  2555.134469149155 976.8722447029645 420.9400765748843  2588.765550186786 1890.954199928142 309.2892004262708  3134.88870133305 1811.950692255149 139.5501216063815  416.0576242773869 -2165.033165640973 492.9009514549178  1523.565174637422 -1898.528831197071 464.6508380023507  1778.404681885043 1807.357158383895 447.8865964269315  1713.484291000829 2643.848599236344 313.0633135664743  3578.351471728563 -947.8149214552737 92.319709878704  3154.92716825507 -1958.629106827128 11.66659831299727  3255.822279200553 -983.4823643096058 -257.3087102398027  565.3518335179391 976.9503592129955 -589.3208708800587  2529.711555762297 952.3813295007327 -427.9727725364221  2568.961726724625 1880.788972246797 -317.7572929819306  777.3521904524616 -3225.989764604549 -248.1867178970792  -543.851467234099 -3364.68993069105 212.0883161767623  758.8051333692662 -1965.905679151567 -503.0952795866543  3113.474484815108 1833.561605011649 -146.2099966380325  2328.252288750273 2648.817019052136 -176.2337045177619  1653.287271137238 2578.020084710998 -340.0626540032834  1305.183620625224 3210.461766856075 -190.2095196069335  576.6507554815403 3014.751013500803 -331.2139241566602  168.7892812770869 3475.675944972209 -172.9065398619935  -591.1331661630359 3101.822968821908 -305.9131765266118  -975.3561318648141 3413.490829797443 -130.8126626184637  -1719.006603098302 2915.344571436056 -234.7393528928036  -187.6008947061788 3614.989217839378 9.491761300237313  -1198.452234879736 -2800.91680091437 340.568111305294  -1655.284345872619 -3097.332905722616 169.4987449083609  -2018.263110782655 3029.558520511275 -64.61077989815865  -2666.105412489268 2369.850923259863 -161.1599271335741  -2839.872628809756 2364.562147428169 13.05950366986637  -3331.346635954816 1560.110335851338 -100.7620073309075  -3377.00373210213 1480.850717992115 92.45981068443491  -2959.664192657538 1478.751208487529 -285.3789977212864  -2731.017488350237 2188.096847767062 199.4435899978315  -3524.416538277979 646.75490750299 -181.835124900211  -3119.852059523368 1217.377752884906 273.2424600541048  -3000.282922492641 415.2116328786417 -365.3574864560611  -3368.942656510688 -469.7262465169482 -260.3612744775581  -2321.043375708678 1835.098765305941 370.6411556100118  -518.4065824093253 -1500.157711220589 557.8777486661968  -2260.732118763436 -2395.356637779018 277.8324845857836  -2696.145526877335 -636.3337095612499 -416.2903669997095  -2912.626608261397 -1493.485642696777 -294.4060050600794  -3605.290630056233 410.4558091699616 156.3924350082554  -1254.486319573678 2414.551818949826 -413.8778294387367  -2567.338848816486 783.6294809316821 430.7278225716428  807.0561681051111 2439.804037407565 435.9721827038493  -3473.694729172393 -1223.420060181224 -104.3385072119967  -2184.528670722993 254.1745708447392 -501.6466369343693  -1701.92734070199 1396.382532720932 496.3806898344678  -2099.060402032389 -1606.697589209977 -432.4116717500199  -2197.714108582596 -2392.154129488102 -289.3102139812347  -1852.146377991645 2693.743980131545 277.2578967599191  -945.6324468562491 -3495.539696954836 41.71981327971793  -1792.465124841588 235.1112893438091 542.1295273442333  -2648.317103756558 -339.6728512614484 435.0275498213546  -1268.619146003968 -2399.083036223711 -412.1951438399082  -1272.711105108602 -3058.308628442612 -254.5564497940024  -1093.280658565381 -1519.260768503601 -530.9869767265354  1902.390243295649 3118.669847263034 -19.12360447052005  -2558.430748000102 -2569.211980236201 111.1825034795784  -3080.654798310431 -1735.178598275186 193.0813672038454  671.9702156391895 3141.073380560787 285.3807456769713  -242.5895131856868 2833.001232544235 381.6189974092271  -84.04658661339384 2134.799980804221 498.2410732561716  -1016.701174603369 901.9874710161306 574.7495093247235  -1695.338679554883 -1959.034780642099 440.4550171375128  884.8631728417056 2385.273623234523 -443.8744668432204  -2103.074608308453 -2892.128788758046 -133.5956506255758  -277.910826719587 1829.933476452053 -533.4459785279512  -615.8727390532695 784.6475259554246 -596.1532656032805  -417.5123251918865 3381.502287712331 208.2426630766015  -792.9758249074157 -555.3788949379888 597.8077441690302  -271.157768608313 -2966.601447524306 -350.2375266901022  -1713.268959080113 -892.4738928078834 529.8121893713649  -2640.928183801612 -1436.696694613587 365.7879959947819  -3287.666082603842 -690.5384989552649 274.575584566769  -3596.991246500742 -896.4295107033953 87.39364492355823  -3736.023834964175 -116.5956988578777 -53.75192070780174  -1441.384531258303 1554.768259279644 -507.0651284890145  -2185.968989770177 1719.69748825293 -409.5079096666119  -319.0911260565201 -3407.211706106205 -200.6452538902357  -127.6563482625156 2674.887884933714 -418.4391593108219  1496.20611886578 3182.571047084411 159.9345919637033  3234.054638392579 -940.0350538031945 270.3332093471111  187.525648365564 -1025.247116212068 -591.8906971924558  593.0782901008133 -3530.927952034218 -93.44652489053418  -1142.720935647394 2312.51668221486 435.913635718432  3586.774985050959 910.8502554778795 -94.26860791409129  2397.281539006035 2624.749276951677 157.8668415675214  2828.000527485183 2378.874607228387 -8.326894737840652  -2864.728362092288 -2151.493137518412 -155.4178346136158  -1243.136296953762 3404.050549900039 46.37862534703274  -2085.64451950063 2935.672444196533 111.6883368798337  -203.5334647915404 -2213.366712429045 -487.1510812406441  -874.5952128651932 -404.0019278663979 -597.50320934966  -1843.676892603295 -648.3821511507351 -527.1501628011213  866.7965563903779 3517.362314586004 -33.51213820689843  101.5672690466377 -3596.409994804024 70.72975163934848  2072.063125216159 -2287.345502538451 338.2528996818979  3593.112807058742 922.502975044352 82.75276764495095  1641.552718423321 -969.8913865016135 532.0606899184116  -3173.534843815485 -1929.36943013999 16.30937359348343  -671.7139092621563 -2388.578178112682 453.4640451711894  1828.421815632008 1752.210039115314 -451.2053157364674  -3215.047799384569 288.5611536988964 315.3470952939381  842.3985254428883 -2695.782934897613 -387.486563722496  919.2556170214998 1738.519379246502 520.0757843129039  534.5102440874713 3501.602888247135 128.2031455042253  -2333.741438174986 2269.451054740247 -291.9689556968669  3137.972896498074 -1744.933304145942 -160.9204203783361  -57.436342058289 941.6556731667398 596.7068587061332  2842.335456185094 -1698.301022580711 282.204587907339  -3643.045817434016 862.7773430111954 -14.54609095408949  -1939.393148678487 -3098.881421010066 7.624895860558886  -1184.378604578493 -3382.326232150134 -100.7795987648197  3366.11344680089 1599.213959474588 -5.146273862793776  -837.6631629598274 1783.633729530928 519.3360028170597  1042.374246717593 1619.780304717358 -527.3790880148279  -1265.331274524236 265.9826552589815 -581.0708690067091  -1371.838094031221 3167.33340494581 194.9413156329942  3191.430971279339 -1622.921644093181 171.2151785138123  -255.5793451444751 -3593.415729246697 -60.23596813619602  -2406.718848723409 941.1770781641045 -447.5724224291181  -1644.947731806849 799.8815430610581 -539.8629003858628  -1049.291366257264 2912.410412844061 322.7606304931072  -2638.324313617697 -2566.124483957429 -33.28181577349096  0.000843381129041066 0.0005961587198937798 -0.0009111004401672709  -1196.752633928467 -1416.612451216254 18.18684709081722  1809.64647149013 552.4535246086017 -3.236890933239696  -720.9269920839126 1489.006650753942 135.232998095776  1348.883559959231 -1055.546845817931 124.8354373793197  -878.8368817366701 154.5170651910173 -275.6640973384307  -1861.244267996739 281.1755371215398 0.0234401536177581  355.594287733336 1684.262879316784 -119.6538911702584  1257.129085549039 -829.9863896051747 -184.7762938698467  -977.8904927086488 -157.7135963491019 267.3789777831298  937.6915986677936 1253.22016667563 214.5690364526559  -346.2601981956027 -1430.164366492442 -233.0130832857832  309.7011217535762 -2065.483747176102 2.626350742633725  7
[...]
<PointData  Vectors="Self-Gravity"> 
<DataArray  type="Float64"  Name="Self-Gravity"  NumberOfComponents="3" format="ascii">-3.8300780558309551e-06 -1.3261611536577057e-06 -2.0091436668098092e-04  -2.5003564595966813e-06 -3.0867564791128174e-07 2.0021704002066854e-04  -8.7738553397205132e-06 6.9938029957027047e-07 1.8789897562232282e-04  -1.9367024410364320e-05 1.6675239155634679e-06 1.7001379479086360e-04  -2.1714003038042083e-05 7.8596000490219032e-08 9.1412355527120478e-05  -2.7943351371074258e-05 2.3060299601701997e-06 5.8149950034271340e-05  -3.1989525117167165e-05 -8.5254045800025898e-07 1.2386776185866812e-05  -3.1707499712408395e-05 -1.9405742283230230e-06 -5.1172929187524826e-05  -2.2043830657375172e-05 2.9562963475912035e-07 -9.8335284851293919e-05  -1.9679739223971511e-05 5.2329246852825721e-07 -1.6607189963991316e-04  -1.0224821747654800e-05 2.8933382678448869e-06 -1.8149932233031397e-04  -9.7289971670887580e-06 8.8816095334093740e-06 1.3363953835085065e-04  -1.2632719918325195e-05 -8.7117327358679257e-06 -1.7723021813090381e-04  -3.4171412197039138e-05 1.0495268269281220e-05 2.4796797137252512e-05  -2.0667260191401784e-05 9.7581634475901542e-06 -1.4097696198501876e-04  -2.3797461384930559e-05 -8.3030141174513960e-06 -8.3322971956228880e-05  -2.4614275302635095e-05 -8.9857081837649224e-06 8.8916406477213325e-05  -1.2236056759001661e-05 -7.9435256417439105e-06 1.6053826745557516e-04  -4.2968451342389917e-06 7.5531651460956727e-06 -1.5515000262220099e-04  -2.2552509421897061e-05 1.1503758536487668e-05 1.4393641211962830e-04  -1.5312288816623536e-05 1.8869889154236633e-05 1.4108553875988070e-04  -2.4459485900139122e-05 2.1355454891978951e-05 9.8314944454653584e-05  -1.5156982711629926e-05 2.5820268585100507e-05 7.8365979871091628e-05  -2.3281160638373618e-05 2.5844333844288008e-05 3.6632047174839458e-05  -1.2152103329030579e-05 2.8018376353857687e-05 3.6933800122437598e-05  -2.1477277465250087e-05 3.1173768980424755e-05 -2.0253284174601454e-05  -1.2367350926560148e-05 3.3338134687467225e-05 -2.1127172403202716e-05  -9.9481363367537104e-06 2.0539601720529026e-05 -4.8705334981762620e-05  -4.4782954405796326e-06 2.9861018346678585e-05 -7.0748210494538298e-05  -8.3678692814332716e-06 2.3076388642586284e-05 -9.4921038982819896e-05  9.8175795522795405e-07 2.8762700055851118e-05 -1.1253509260822547e-04  -2.3092476291198764e-05 2.5261930797046035e-05 -5.9132441199469404e-05  -2.6051334436719554e-05 -1.1699426755931169e-05 -1.5176151067178501e-04  -2.1969791570924899e-05 -1.9431593645982104e-05 -9.2741019626886391e-05  -2.2805088358328412e-05 -1.3750739340175993e-05 -5.1145231615739885e-05  -2.6991184160809764e-06 2.0325050463856583e-05 -1.6616795010826691e-04  -1.3121338304470355e-05 1.8757618299027514e-05 -1.5921689886983550e-04  -1.8742232830824480e-05 -2.0108047762335683e-05 -1.5093490956380058e-04  -1.7119415842318560e-05 -2.6635222067455782e-05 -9.2032001307877027e-05  -3.7154371379319072e-05 8.2702190810859011e-06 -3.5285277781149562e-05  -2.9829277958764395e-05 2.0888259549318230e-05 -7.5516230959768478e-06  -2.8582744776798307e-05 8.5799222322027094e-06 9.3109789761180260e-05  -3.4430541010248087e-06 -1.0864909163836097e-05 2.0231113546043472e-04  -2.3634838787679394e-05 -9.6099391601528181e-06 1.4727639066109967e-04  -2.2053116670750078e-05 -1.8229411396300992e-05 9.6237385281467382e-05  -6.4511459732076270e-06 2.3964539508956437e-05 7.1570658240916805e-05  3.5988292570825805e-06 3.6651078723454302e-05 -7.9522978105816516e-05  -6.4304951142681549e-06 1.7594796389915424e-05 1.5099667541746602e-04  -2.7577096953418310e-05 -1.7042954381085280e-05 5.3511432194870173e-05  -2.2700465507082401e-05 -2.5131995556352696e-05 5.5630985332697874e-05  -1.4566080854132918e-05 -2.6539015251866689e-05 1.0603221375238972e-04  -1.4964014565603643e-05 -3.1262338587907826e-05 6.2206040749306118e-05  -4.4967325812242672e-06 -3.1707670401372518e-05 1.2088296258019186e-04  -1.5575226681502696e-06 -3.3387416782951539e-05 6.0624125442550987e-05  5.9983364780334504e-06 -3.1667535448176209e-05 9.3713969098326071e-05  8.3756892310781741e-06 -3.2818577884001146e-05 3.3823416414372322e-05  1.3663112945864481e-05 -2.9344444180289784e-05 7.6993446990198056e-05  1.7974761865151165e-06 -3.2347287296077621e-05 -8.4555839432859573e-06  1.0940746744892650e-05 2.7449489843877951e-05 -1.0357276833874483e-04  9.9050768892565643e-06 2.4286308672945390e-05 -4.4634321341875594e-05  1.8316004127426633e-05 -3.0160075138045829e-05 2.0061407375381268e-05  2.4497638851503741e-05 -2.3448007907028669e-05 5.3713876379996248e-05  1.9973177394268820e-05 -1.8427702760325273e-05 -1.1296658642623885e-05  3.1547255958521747e-05 -1.7998666362165147e-05 3.0648067214678751e-05  2.8211197727254723e-05 -1.3724397798524775e-05 -3.4399873536641276e-05  2.0502127766556200e-05 -9.5398026244494923e-06 7.4590068338569059e-05  2.5879900662934283e-05 -1.9131577950864257e-05 -6.6417153336238968e-05  2.7378547723421269e-05 -4.4498298259810524e-06 5.5722863564005013e-05  2.0536111135307725e-05 -8.4149411138046314e-06 -7.1504467840399991e-05  2.7490269108706655e-05 -2.0558224390957546e-06 1.0699970276901103e-04  2.9056981311631151e-05 3.7912481506113394e-06 7.4649008145214073e-05  2.4131017828918209e-05 -2.1903501851889140e-05 -1.3323980692148417e-04  6.4682648892378151e-06 1.5249325458963354e-05 -1.7841645859211915e-04  1.9152596497047423e-05 2.4491900547518033e-05 -8.9937118521145524e-05  2.7850345303168518e-05 7.7803881405791916e-06 1.4828993542015132e-04  2.5170301829846925e-05 1.3455274313282141e-05 1.0358619391778547e-04  3.4348139379465127e-05 -1.7689719046713849e-06 -5.0277175938141199e-05  9.8404186553103083e-06 -1.9236703684523340e-05 1.0636226069958808e-04  2.2008957083132151e-05 -8.6521704495327801e-06 -1.1988697653468394e-04  -7.5191720218509030e-06 -2.2586044743514585e-05 -1.3737498346468949e-04  3.2732101025151146e-05 1.2569338950736047e-05 2.9685966041726432e-05  2.1070829906061861e-05 -1.1757262135631108e-06 1.6630802166884428e-04  1.5792505493792533e-05 -1.1967030672968981e-05 -1.6088755136711892e-04  1.2593394564030748e-05 1.1433134040339257e-05 1.1313120703848233e-04  1.7181263081476631e-05 2.0838920143724855e-05 1.0267765251571898e-04  1.9528032965073600e-05 -2.7274738540685307e-05 -9.1807268022042654e-05  8.9282022153905504e-06 3.0586399419330999e-05 -1.6416733485213166e-05  1.7793401260439776e-05 -2.7677721430960792e-06 -1.8256277937790224e-04  2.5218230939799122e-05 2.6128419454165998e-06 -1.4408569430996517e-04  9.6788134310639117e-06 2.3097853643181732e-05 1.2855310406971365e-04  1.1424550819947570e-05 2.9262906784884212e-05 8.0850252640669263e-05  8.3787146669371695e-06 1.4687998149309744e-05 1.8204205722275278e-04  -1.6834573242517102e-05 -2.7632437591336399e-05 -7.8407664632459051e-06  2.2212311781163173e-05 2.3386826765770218e-05 -4.4228947865071261e-05  2.3567252961159506e-05 1.2705186874236501e-05 -5.8753278120011482e-05  -7.1247754588942572e-06 -3.0271210840038647e-05 -9.9799644102263778e-05  1.0858584369404442e-06 -2.8492535869786910e-05 -1.2934257176169678e-04  3.6093368832241550e-07 -1.5762874362964806e-05 -1.4053573695112283e-04  8.7643989149777373e-06 -8.8031396729481496e-06 -1.8001370892362122e-04  1.4949914810547951e-05 1.7391290714928398e-05 -1.4062039353365813e-04  -8.4921491164352549e-06 -2.2812815031792386e-05 1.5120898799126948e-04  1.9138562012176538e-05 2.5962941826743368e-05 5.5660019542925809e-05  3.2358667727226961e-06 -1.6405464927951135e-05 1.5103156089814419e-04  6.1309211365281543e-06 -1.1207958799423501e-05 2.0651412943307988e-04  4.0648046530168046e-06 -3.4984471238911454e-05 -6.7747880997453077e-05  6.2886890172938187e-06 1.9346874601074124e-06 -2.0440751068612583e-04  2.8343438780554788e-06 2.9932609751087086e-05 1.2026630806212116e-04  1.4636541534794914e-05 6.1964808081909785e-06 -1.5417627330336487e-04  2.4190839324731621e-05 1.1662577337395089e-05 -1.3296306878351233e-04  2.5494171406187641e-05 6.0856842304199536e-06 -7.5151032218160146e-05  2.2548441870298125e-05 7.3902955166639760e-06 -2.8977142427938811e-05  3.2583723508221727e-05 2.3991189334572864e-06 2.2910073029075909e-05  1.2643126146924211e-05 -1.4041345904835094e-05 1.6482148158207787e-04  2.0036963813086212e-05 -2.0405596460977220e-05 1.3146126198125080e-04  1.3196220958169716e-06 3.4323798571133635e-05 8.0784002809921896e-05  2.2456802451540657e-06 -2.0001617601480073e-05 1.1140741176603831e-04  -1.3936748917130175e-05 -3.2490479709136044e-05 -4.8994778280209280e-05  -2.8103308347422491e-05 8.0707972323965935e-06 -7.1456362297578062e-05  -1.2495397200746895e-07 9.1477163666206718e-06 1.7809338819163868e-04  -4.5243091788544912e-06 3.5105572045442621e-05 3.5901711260999168e-05  1.1520552941336108e-05 -2.0679815057197762e-05 -1.4482739895357706e-04  -3.4460784353115300e-05 -8.7064234428163410e-06 3.7336244883269901e-05  -2.3962726892148637e-05 -2.7004111630272220e-05 -5.3736146823681517e-05  -2.4817831350915667e-05 -2.4420191697774733e-05 -1.7311042914438825e-05  2.6951363637176462e-05 2.0439706268974120e-05 4.7880445962241794e-05  1.4174817246411071e-05 -3.7206498191739451e-05 -1.3132313560737803e-05  1.8605740861334333e-05 -2.4456335057822044e-05 -3.2660714559067118e-05  2.8762771446495713e-06 2.1661719025495426e-05 1.5954761898331337e-04  6.6653800304483840e-06 5.0276925117551949e-06 2.0839355593495570e-04  1.2546692423900032e-05 7.1502869802068299e-06 1.4120207145809229e-04  -8.4017723652568596e-06 -3.6552045994323006e-05 1.2438798532990142e-05  -3.5357383888731506e-06 3.3882617764161554e-05 -2.6205377789159914e-05  -1.9936770097899980e-05 2.1898564954773579e-05 -1.1022136926590273e-04  -3.4320137701469507e-05 -9.8519239350798580e-06 -2.5515437509677537e-05  -1.3317888678890152e-05 8.0495218116235757e-06 -1.6150428765906487e-04  3.0008757413910157e-05 1.8891396129340158e-05 -3.5875924705148035e-06  3.8549819138383749e-06 1.8014418921663933e-05 -1.2517301918253096e-04  -1.6404107785777270e-05 -1.7441511676765436e-05 1.4822751500320470e-04  3.0728223996752422e-05 -1.8979042286877348e-06 -1.0807733201225245e-04  -8.1822461653660189e-06 2.6045290127407466e-05 1.2300673550299704e-04  -7.1119867014413878e-06 -1.5127736431167437e-05 -1.6779280157421352e-04  -4.5934650128786797e-06 -3.1788283775008674e-05 -4.2747904322536860e-05  2.1826362000032300e-05 -2.3818508460083151e-05 1.1516273706548327e-04  -3.1893876341617424e-05 2.0206261214269849e-05 4.2076973812388260e-05  -1.8642072127350437e-06 -9.6682314065329597e-06 -1.8759051420926562e-04  -2.5428121607729493e-05 1.5014223413036529e-05 -9.9695025862992385e-05  3.1535860567845942e-05 -8.4022357155751225e-06 7.8767324012752277e-06  1.6607049455257335e-05 3.0477284728294700e-05 -2.9834143495249465e-06  7.8140543582275597e-06 2.2321681225533647e-05 3.1991048343321600e-05  -2.8359665625707815e-05 -1.5829973867148867e-05 -1.0424668800411394e-05  6.7450524652800018e-06 -1.1738072407079600e-05 -1.6556726493434902e-04  -7.0439648643506101e-06 -1.7599014261415086e-05 1.7635596068675655e-04  1.5877779409390700e-05 1.0195386215814339e-06 1.9744855136531346e-04  1.3806777089478663e-05 -3.1185446459196836e-05 -5.4304867560070923e-05  -3.3103440103500604e-05 1.8312192029214633e-05 -5.7052834153074869e-05  3.0894094215155925e-06 3.2048795687124528e-05 6.3590833409062066e-06  2.5095400871478512e-05 -1.0397643315930089e-05 1.7268157852795638e-04  1.4691052031187385e-05 -6.5317264919327579e-06 1.8532348919473928e-04  1.1391495535771635e-05 -3.0799134075678017e-05 -1.0333394429914857e-04  2.5239399174774320e-05 2.6982121047888805e-05 5.0069399612619321e-06  9.1337823230691067e-07 4.1337340983087492e-06 -6.6949731984299995e-06  1.4446377073404387e-05 1.6319361971906703e-05 -1.3281000979729282e-05  -2.3896218952763834e-05 -5.6795338476528719e-06 -5.9523232356180158e-06  1.0765212733020237e-05 -1.9049696758643281e-05 -7.1739457885495794e-05  -1.6474400141303069e-05 1.3109549619808078e-05 -5.5110754608533530e-05  8.5036354673155734e-06 -3.3375363498423229e-06 1.2483294833937780e-04  2.1094251953013962e-05 -3.8666238294847098e-06 -6.9797817019968715e-06  -4.6464558385664808e-06 -2.2979574338140877e-05 7.0361383681593820e-05  -1.5173526820092061e-05 1.1283026279362298e-05 7.0569874629540838e-05  1.1428803966599616e-05 3.5162314684184806e-06 -1.1787692488318095e-04  -1.2467970285044874e-05 -1.7605858347345466e-05 -1.1894871569015727e-04  4.6342732723402805e-06 1.5453823361304662e-05 8.6022772925198316e-05  -3.3954290568201088e-06 2.1187343580418221e-05 5.2472053485427150e-06  -9.5961138452612949e-06 -8.2796460569289102e-06 1.5734920946894733e-04  4.0206211419895958e-06 1.6308127303504978e-05 -9.9306576364960723e-05  -6.3685993738332141e-06 5.4271924358822459e-06 -1.5164938215969184e-04  1.3451477991678507e-05 -1.7228073841043169e-05 4.6611236024130583e-05  2.1430411392087832e-05 1.0561331693610957e-05 5.4656247637735113e-05  -2.0496840010677521e-05 -3.9883344536599662e-07 -9.9852131671820561e-05  2.7133831121413205e-06 -1.2950952319643780e-05 -1.5754145236166435e-04  -5.3508025996234047e-06 -2.9346789848671571e-05 -5.8340612825005836e-05  -1.9272864088403576e-05 -1.8111006452322692e-05 9.4508768394175623e-05  -1.6910560187450764e-05 -2.3146436985408946e-05 -6.0411194359270155e-07  2.2224644307001960e-05 -9.6462354317351276e-06 -1.0867358537638552e-04  -2.9794044020282421e-05 9.6930028293771594e-06 1.1151002789050734e-05  4.1574213115624486e-06 -1.9175000195883805e-05 1.3882080701749022e-04  2.6003879633243288e-05 9.8384707152492018e-06 -6.5560101421914150e-05  -2.3864220801494795e-05 -2.6330042319098949e-06 8.8118898513241199e-05  -2.0335917612578265e-05 2.4564580622961905e-05 1.9170444033117473e-05  2.3785613764644153e-05 -7.9105714819727660e-06 9.3674404710459574e-05  -5.7602021719190891e-06 7.9473789517676540e-06 1.4424151623596078e-04  8.9599295769426106e-06 2.7710894322169344e-05 5.8200141148937148e-05  8.4164085645696497e-06 2.9960538350718623e-05 -5.6589121843809378e-05  -9.6314269275163680e-06 2.5831586471895791e-05 -8.0303027923979135e-05  2.1404784669755201e-05 -2.2511749310157083e-05 -1.8105006830379531e-05  -8.4569222731900387e-06 2.4927139050672574e-05 1.0314606689079637e-04  7.1835898711389104e-06 -2.9832923190002965e-05 1.5149803426987232e-05  1.4080853686669355e-05 1.0879048095573313e-05 1.4975248024732735e-04  -2.5128738745125339e-05 -1.5474930195070436e-05 -7.1459081727584317e-05  -3.9469524021975183e-06 -1.1743172183172960e-05 -5.7997442054944008e-05  -8.8882648977662964e-06 -5.7138119418184992e-06 7.5512892523548860e-05  </DataArray> 
</PointData> 
</Piece>
</UnstructuredGrid>
</VTKFile>