<?xml version="1.0"?>
<VTKFile type="UnstructuredGrid"  version="0.1"  >
<UnstructuredGrid>
<Piece  NumberOfPoints="201" NumberOfCells="657">
<Points>
<DataArray  type="Float64"  NumberOfComponents="3"  format="ascii">0.05393906761255846 -0.0448893037844311 1702.754543086179  -0.005927301138290482 0.007981004168074861 -1702.754651058535  546.4033259789998 0.006341940775686202 -1619.398758971338  1039.267476818208 -0.0456309613949387 -1377.619081221918  1430.4418899896 -0.007079819736600413 -1000.805377441605  1681.672041199027 -0.009064671203723694 -526.1766817595781  1768.298909787321 0.01515822707297889 0.09605244061955433  1681.708677015181 -0.02964778504145725 526.2769481278617  1430.552806301906 0.003062820555070941 1000.885687294256  1039.394484754295 0.01268967172586566 1377.542505199658  546.3832482531182 0.02115156078380658 1619.367923645324  692.6057208656731 -86.49281807413107 -1481.118331411232  688.0078648542424 67.21044159760079 1517.679398282974  1683.803375599739 -77.06483529072288 -252.511306613275  1212.571755723211 -84.00965356870216 1135.909878933963  1531.542286886799 77.93535925587966 716.3409503413475  1525.163844926868 77.93496020491949 -728.7003364437606  773.2683081647643 77.42462499822197 -1461.500369321018  266.46719409261 -77.44033005336233 1620.009412261296  1204.474011889023 -77.42908473768173 -1159.812205798914  839.4148081712874 -151.1938464360625 -1200.02863465551  1247.23184947599 -148.2076108658555 -826.4581592198047  856.7383860999137 -210.3662498106475 -795.1039117082943  1206.728536695594 -197.8229358736203 -391.3801138527363  758.6618475564514 -248.8396666280092 -333.068405476706  1079.182532881154 -224.3302390279107 84.21529218435766  567.8016354275815 -265.0954051547108 152.1008275286817  822.4777392565054 -231.7110861545745 576.3413820442782  296.5612390314125 -258.3460619773951 613.4756616597734  525.9113067680148 -212.3961596577959 1011.809571318445  -20.39497356382886 -227.595142780395 1014.365080593824  1259.177558170132 -183.3221899524144 485.6753199890886  1204.583903170645 77.45055241152589 1159.847352178575  1222.037905099991 149.2093941798725 854.85564617621  1479.635322197715 143.1044839096016 386.8776089822  196.3849070343689 -170.4117247098409 1354.424893913174  719.1846966161459 -149.7026389101478 1276.493859100017  839.2240498584237 142.6494639498988 1236.930735796506  810.2138945172306 207.1842349940685 867.9174013851053  1687.065020828074 -75.18899469325731 252.4958152819616  1489.592940799152 -154.5125174401179 29.30000907866121  1535.011418383353 -78.0149097320331 -709.1940602353782  266.5122269279464 77.4065435250083 -1620.048667348276  1192.427104884727 75.47476656798776 -1175.693943300709  1212.523461690831 148.4306768772066 -871.9156737459351  368.1736133048744 -250.9706255200556 -690.6924316831929  -257.7269387920502 -261.2810337728926 580.8241146780333  358.2221597204543 -154.9101427838119 -1390.203956292916  1469.618176526441 144.796913148889 -399.7569275254067  1100.964351650197 207.6011846244984 -481.9613783778436  781.5508507433511 202.1954953008705 -933.5280414409597  618.1738689118843 249.8431828364508 -520.406838524059  272.9018267747842 235.1916985493439 -909.3686385322889  79.98898781210339 269.5098139973783 -472.6438687063323  -279.8926955991791 241.6315287137389 -839.6942913436318  -462.2906279025556 264.9458619190772 -356.4056294256571  -813.4567001867223 227.7652413222707 -643.3082289957983  -88.94926125932538 279.7089609945651 31.62275937645659  -566.8691130969848 -219.1161586695027 935.038716705856  -783.7173087699032 -241.4976944900211 463.2652379831503  -955.4366137750941 236.4167164684615 -173.889746218831  -1259.770334242138 186.2919902130992 -440.6117180231596  -1341.875268269077 185.9284571229214 39.39957633698601  -1571.667257221388 123.4233671335284 -275.031192058541  -1592.982172181802 117.1917570150511 256.537991321567  -1396.054537121935 117.0536792028202 -783.053184139193  -1289.890090627519 172.3244552782146 552.8225048625632  -1661.12667320023 51.33805111164781 -499.0829261585905  -1471.103248902822 96.48595129920507 753.6950183210611  -1413.765233629306 32.96052853208623 -1004.08386900124  -1587.616594449279 -37.31272894655943 -716.6672496643829  -1095.453324256354 144.830035420892 1023.939358740382  -244.5098261490977 -118.598567202596 1533.210731863933  -1068.286665196329 -188.1832821904825 762.047111871359  -1270.574456243306 -50.50601981680563 -1146.277784915954  -1373.941168767162 -118.171233415846 -812.6885032159278  -1699.01509487312 32.62613687843918 430.6306265017712  -592.8187727047801 189.6082492179737 -1136.897761143621  -1210.011613633259 62.12888578525413 1186.314078293553  381.3492379774406 191.5878062255598 1206.682603273388  -1638.085855131952 -96.92155946884928 -288.8457604170234  -1029.310387444662 20.20481833167883 -1379.59549947834  -802.5743268530589 110.4613686445654 1369.353291643771  -990.2664393702338 -127.0065913643871 -1193.585022333644  -1038.56796544477 -187.93536401786 -801.4179440909218  -875.8119173448401 210.9937857994923 769.1236431604226  -448.3460766257288 -270.9551571701525 110.112820476825  -844.4960115236806 18.68419098266018 1492.050757146781  -1247.928211498046 -26.98271896626193 1195.87771095412  -599.4680033703044 -188.3930701232586 -1140.921874361448  -602.5073866346768 -238.5274743524623 -707.6849878014552  -515.826365525447 -120.1038428841265 -1465.354737099085  900.8640287760782 242.986237686866 -48.25005898948839  -1209.583977816371 -201.5075069628697 302.6927443300538  -1453.751612449047 -137.1615583012986 528.8794866368222  318.1898118204163 244.6803878419074 793.2756977454188  -114.7946956143067 221.3818794118929 1058.301007909834  -39.69025653884282 168.1034561304753 1377.418162597497  -479.2360745201049 71.4813467441429 1583.742804683266  -800.2194615495329 -154.4462533269676 1209.876808858467  418.0505366616467 187.303922577183 -1219.503912899358  -995.1438479120736 -226.0129663744023 -372.9831495023915  -131.2016867704648 144.359355512336 -1465.914952915946  -290.4218830906013 62.16557109998327 -1639.076366966444  -197.8504863239982 262.5402301469301 580.7964895420998  -373.7486415333187 -44.07063549863585 1643.878135796801  -128.3285755196762 -231.5741415969569 -971.9968795603594  -807.4463238471149 -70.7348652222001 1456.23923971061  -1245.648084945044 -113.6714851203117 1004.26037238213  -1549.475510988019 -54.83861928619463 754.0060608257193  -1695.591333557007 -71.11281773825671 238.9969513492341  -1760.593016401807 -9.256374365368432 -147.9134078315463  -679.9192486352853 122.8752037160261 -1393.374265826291  -1031.504978157345 135.8377710402675 -1124.688217001731  -151.2482679357252 -264.4696141303908 -559.8140341027695  -60.34951936263833 209.5518214293802 -1149.618029460705  708.617034662422 247.8425283194747 446.5190962096638  1524.670857910467 -74.55918946998726 742.1958524566136  88.43057113206818 -81.18780388454914 -1631.553979886947  281.2098750267727 -273.5793042055405 -263.6003168723918  -539.7888346065877 181.7848070513436 1206.049706863517  1690.944623504149 72.28242030477509 -257.8932366646402  1133.562967047183 205.7544281722577 439.275858022219  1336.407229073301 187.0145741591412 -19.46470655005236  -1353.02103141616 -169.4566096942812 -431.4146573057727  -589.2199193032449 264.2816160491116 133.1977599193046  -987.0030992736505 229.29845062852 312.6325666035336  -96.22175187422187 -174.1446947155639 -1347.202492712683  -412.2851550241256 -32.05037509635329 -1645.099038694612  -868.8339710065159 -51.43389462642917 -1451.815174575387  411.0074839896091 272.5962984970854 -87.43454774755502  48.15991251673127 -278.3872507195396 190.2615998248316  978.8416530755793 -179.8961245544837 928.3690958571863  1693.957319869431 73.15842491798961 228.9407058521784  773.7792586719877 -76.84001112827016 1462.28691977188  -1498.166250500963 -152.2700077403719 42.11630724894108  -317.3621353125549 -187.6660558578211 1245.846643569037  862.6873549521921 138.3819240396688 -1239.399522366111  -1514.95887397534 22.92474615356203 867.6095004431827  398.3305010297648 -211.0759195272756 -1073.805498222092  433.6570908862724 137.2450656249092 1436.035900509867  253.4316220593887 271.4008258848762 359.7147481415316  -1102.516200621922 178.484363610701 -800.9623115978853  1480.929227745343 -137.8890665507437 -445.5312290552172  -27.07326556654283 74.56764295763809 1644.528496153164  1341.261461476999 -134.1746995578818 774.1988093574965  -1717.372653160066 68.45172699067945 -38.69559750208801  -918.3152261413801 -241.6230481479815 16.47791109083771  -561.3374641949181 -262.6547277658723 -283.494037427841  1588.262279721782 126.4652700526825 -11.83251737097194  -395.2898506506629 140.8247722047411 1434.157159157261  491.7953780376097 127.9801452115897 -1449.221277094968  -596.2646105674154 21.09880538426565 -1598.329391758917  -649.7057195910215 246.6740022862305 543.3153482320785  1505.833410621424 -128.3425080917269 468.8281672909999  -121.223527004414 -278.1978082684419 -171.9003044686412  -1134.501494971096 74.63102916413854 -1229.802110279272  -775.2873360780943 63.43422988860415 -1484.086622924971  -496.4922905432996 227.5901708326563 895.7113568903376  -1247.215633749721 -201.4169118448924 -95.51588941950097  -0.0414383909836949 0.001572514660378785 0.02754021024915936  -567.3324858761268 -109.8888817316229 47.44213425412389  857.1907927800704 43.00140856142285 -7.816495857295529  -341.8317914010868 115.4346325172652 377.2753385931306  639.1892740485937 -82.0270815998155 343.0747646758261  -416.2526446454203 12.03749576537917 -761.8312246683462  -881.5617023932324 21.89593811145253 0.6388267732220987  168.5984794626043 130.4622386150994 -327.6869999880539  595.5781530565347 -64.56166096523141 -512.6964989002082  -463.1642316304597 -12.28628545551675 738.9058232551549  444.2687679183037 97.41661956215765 596.0017569775935  -164.1094243108213 -111.0772068596841 -647.5599210484464  146.9263901775235 -159.7537707597627 3.191618119872637  353.5106728824654 42.723
[...]
<PointData  Vectors="Tidal Force"> 
<DataArray  type="Float64"  Name="Tidal Force"  NumberOfComponents="3" format="ascii">0.0000000000000000e+00 -5.9854502085784513e-17 0.0000000000000000e+00  0.0000000000000000e+00 1.1970900417156902e-17 0.0000000000000000e+00  0.0000000000000000e+00 1.1970900417156902e-17 0.0000000000000000e+00  0.0000000000000000e+00 -5.9854502085784513e-17 0.0000000000000000e+00  0.0000000000000000e+00 -1.1970900417156902e-17 0.0000000000000000e+00  0.0000000000000000e+00 -1.1970900417156902e-17 0.0000000000000000e+00  0.0000000000000000e+00 1.7956350625735355e-17 0.0000000000000000e+00  0.0000000000000000e+00 -4.1898151460049156e-17 0.0000000000000000e+00  0.0000000000000000e+00 0.0000000000000000e+00 0.0000000000000000e+00  0.0000000000000000e+00 1.7956350625735355e-17 0.0000000000000000e+00  0.0000000000000000e+00 2.9927251042892257e-17 0.0000000000000000e+00  0.0000000000000000e+00 -1.1134134477997636e-13 0.0000000000000000e+00  0.0000000000000000e+00 8.6507711864584349e-14 0.0000000000000000e+00  0.0000000000000000e+00 -9.9202851756979244e-14 0.0000000000000000e+00  0.0000000000000000e+00 -1.0813912891838687e-13 0.0000000000000000e+00  0.0000000000000000e+00 1.0031614549577485e-13 0.0000000000000000e+00  0.0000000000000000e+00 1.0031614549577485e-13 0.0000000000000000e+00  0.0000000000000000e+00 9.9663731423039792e-14 0.0000000000000000e+00  0.0000000000000000e+00 -9.9681687773665529e-14 0.0000000000000000e+00  0.0000000000000000e+00 -9.9663731423039792e-14 0.0000000000000000e+00  0.0000000000000000e+00 -1.9462289898213690e-13 0.0000000000000000e+00  0.0000000000000000e+00 -1.9078023994822955e-13 0.0000000000000000e+00  0.0000000000000000e+00 -2.7080570923692347e-13 0.0000000000000000e+00  0.0000000000000000e+00 -2.5465696457417872e-13 0.0000000000000000e+00  0.0000000000000000e+00 -3.2035326606353584e-13 0.0000000000000000e+00  0.0000000000000000e+00 -2.8878600166349312e-13 0.0000000000000000e+00  0.0000000000000000e+00 -3.4129037089314334e-13 0.0000000000000000e+00  0.0000000000000000e+00 -2.9829089659471567e-13 0.0000000000000000e+00  0.0000000000000000e+00 -3.3259351174007886e-13 0.0000000000000000e+00  0.0000000000000000e+00 -2.7342135097807224e-13 0.0000000000000000e+00  0.0000000000000000e+00 -2.9298778770991519e-13 0.0000000000000000e+00  0.0000000000000000e+00 -2.3599433082383120e-13 0.0000000000000000e+00  0.0000000000000000e+00 9.9693658674082679e-14 0.0000000000000000e+00  0.0000000000000000e+00 1.9206711174307391e-13 0.0000000000000000e+00  0.0000000000000000e+00 1.8421420106941898e-13 0.0000000000000000e+00  0.0000000000000000e+00 -2.1937273559460881e-13 0.0000000000000000e+00  0.0000000000000000e+00 -1.9271354036560039e-13 0.0000000000000000e+00  0.0000000000000000e+00 1.8363361239918689e-13 0.0000000000000000e+00  0.0000000000000000e+00 2.6671166129425580e-13 0.0000000000000000e+00  0.0000000000000000e+00 -9.6790715322922131e-14 0.0000000000000000e+00  0.0000000000000000e+00 -1.9889651043106195e-13 0.0000000000000000e+00  0.0000000000000000e+00 -1.0041789814932068e-13 0.0000000000000000e+00  0.0000000000000000e+00 9.9645775072414068e-14 0.0000000000000000e+00  0.0000000000000000e+00 9.7149842335436845e-14 0.0000000000000000e+00  0.0000000000000000e+00 1.9107352700844989e-13 0.0000000000000000e+00  0.0000000000000000e+00 -3.2310058770927336e-13 0.0000000000000000e+00  0.0000000000000000e+00 -3.3637033082169185e-13 0.0000000000000000e+00  0.0000000000000000e+00 -1.9941125914899968e-13 0.0000000000000000e+00  0.0000000000000000e+00 1.8638691949513296e-13 0.0000000000000000e+00  0.0000000000000000e+00 2.6724436636281928e-13 0.0000000000000000e+00  0.0000000000000000e+00 2.6028927322045110e-13 0.0000000000000000e+00  0.0000000000000000e+00 3.2164013785838025e-13 0.0000000000000000e+00  0.0000000000000000e+00 3.0277399880094093e-13 0.0000000000000000e+00  0.0000000000000000e+00 3.4697056314108422e-13 0.0000000000000000e+00  0.0000000000000000e+00 3.1106983279003068e-13 0.0000000000000000e+00  0.0000000000000000e+00 3.4108686558605155e-13 0.0000000000000000e+00  0.0000000000000000e+00 2.9320924936763258e-13 0.0000000000000000e+00  0.0000000000000000e+00 3.6010264089870536e-13 0.0000000000000000e+00  0.0000000000000000e+00 -2.8208229742988532e-13 0.0000000000000000e+00  0.0000000000000000e+00 -3.1090224018419048e-13 0.0000000000000000e+00  0.0000000000000000e+00 3.0435415765600569e-13 0.0000000000000000e+00  0.0000000000000000e+00 2.3981304805690418e-13 0.0000000000000000e+00  0.0000000000000000e+00 2.3934019749042650e-13 0.0000000000000000e+00  0.0000000000000000e+00 1.5887180488629784e-13 0.0000000000000000e+00  0.0000000000000000e+00 1.5085130160680273e-13 0.0000000000000000e+00  0.0000000000000000e+00 1.5067772355075394e-13 0.0000000000000000e+00  0.0000000000000000e+00 2.2183275563033454e-13 0.0000000000000000e+00  0.0000000000000000e+00 6.6085355752914681e-14 0.0000000000000000e+00  0.0000000000000000e+00 1.2420407727821146e-13 0.0000000000000000e+00  0.0000000000000000e+00 4.2424871078404063e-14 0.0000000000000000e+00  0.0000000000000000e+00 -4.8027252473633489e-14 0.0000000000000000e+00  0.0000000000000000e+00 1.8643480309680158e-13 0.0000000000000000e+00  0.0000000000000000e+00 -1.5267087847021053e-13 0.0000000000000000e+00  0.0000000000000000e+00 -2.4224912629179561e-13 0.0000000000000000e+00  0.0000000000000000e+00 -6.5013960165579126e-14 0.0000000000000000e+00  0.0000000000000000e+00 -1.5212021705102134e-13 0.0000000000000000e+00  0.0000000000000000e+00 4.1993918663386420e-14 0.0000000000000000e+00  0.0000000000000000e+00 2.4408665950582925e-13 0.0000000000000000e+00  0.0000000000000000e+00 7.9971600236816689e-14 0.0000000000000000e+00  0.0000000000000000e+00 2.4663047584447507e-13 0.0000000000000000e+00  0.0000000000000000e+00 -1.2476670959781782e-13 0.0000000000000000e+00  0.0000000000000000e+00 2.6000795706064796e-14 0.0000000000000000e+00  0.0000000000000000e+00 1.4219035515498970e-13 0.0000000000000000e+00  0.0000000000000000e+00 -1.6348658699711182e-13 0.0000000000000000e+00  0.0000000000000000e+00 -2.4192591198053242e-13 0.0000000000000000e+00  0.0000000000000000e+00 2.7161973046529010e-13 0.0000000000000000e+00  0.0000000000000000e+00 -3.4883203815595211e-13 0.0000000000000000e+00  0.0000000000000000e+00 2.4049538938068215e-14 0.0000000000000000e+00  0.0000000000000000e+00 -3.4733567560380751e-14 0.0000000000000000e+00  0.0000000000000000e+00 -2.4252445700139030e-13 0.0000000000000000e+00  0.0000000000000000e+00 -3.0707155205070030e-13 0.0000000000000000e+00  0.0000000000000000e+00 -1.5460417888758142e-13 0.0000000000000000e+00  0.0000000000000000e+00 3.1280561335051842e-13 0.0000000000000000e+00  0.0000000000000000e+00 -2.5940342658958153e-13 0.0000000000000000e+00  0.0000000000000000e+00 -1.7656479570285574e-13 0.0000000000000000e+00  0.0000000000000000e+00 3.1499030267664961e-13 0.0000000000000000e+00  0.0000000000000000e+00 2.8499122623125438e-13 0.0000000000000000e+00  0.0000000000000000e+00 2.1639198139073676e-13 0.0000000000000000e+00  0.0000000000000000e+00 9.2008340606267966e-14 0.0000000000000000e+00  0.0000000000000000e+00 -1.9881869957835042e-13 0.0000000000000000e+00  0.0000000000000000e+00 2.4112386165258294e-13 0.0000000000000000e+00  0.0000000000000000e+00 -2.9095872008920710e-13 0.0000000000000000e+00  0.0000000000000000e+00 1.8582428717552660e-13 0.0000000000000000e+00  0.0000000000000000e+00 8.0025469288693887e-14 0.0000000000000000e+00  0.0000000000000000e+00 3.3798640237800805e-13 0.0000000000000000e+00  0.0000000000000000e+00 -5.6730097076906564e-14 0.0000000000000000e+00  0.0000000000000000e+00 -2.9811731853866693e-13 0.0000000000000000e+00  0.0000000000000000e+00 -9.1056654023103958e-14 0.0000000000000000e+00  0.0000000000000000e+00 -1.4632630124911740e-13 0.0000000000000000e+00  0.0000000000000000e+00 -7.0592399759974254e-14 0.0000000000000000e+00  0.0000000000000000e+00 -9.1541475489998831e-14 0.0000000000000000e+00  0.0000000000000000e+00 -1.1917031365279697e-14 0.0000000000000000e+00  0.0000000000000000e+00 1.5817150721189416e-13 0.0000000000000000e+00  0.0000000000000000e+00 1.7485295694320229e-13 0.0000000000000000e+00  0.0000000000000000e+00 -3.4047634966477662e-13 0.0000000000000000e+00  0.0000000000000000e+00 2.6976424090063081e-13 0.0000000000000000e+00  0.0000000000000000e+00 3.1906040881848293e-13 0.0000000000000000e+00  0.0000000000000000e+00 -9.5976694094555456e-14 0.0000000000000000e+00  0.0000000000000000e+00 -1.0451194609198834e-13 0.0000000000000000e+00  0.0000000000000000e+00 -3.5220783207359041e-13 0.0000000000000000e+00  0.0000000000000000e+00 2.3401314680479166e-13 0.0000000000000000e+00  0.0000000000000000e+00 9.3043823492352022e-14 0.0000000000000000e+00  0.0000000000000000e+00 2.6487412808022216e-13 0.0000000000000000e+00  0.0000000000000000e+00 2.4074079283923390e-13 0.0000000000000000e+00  0.0000000000000000e+00 -2.1813374740143310e-13 0.0000000000000000e+00  0.0000000000000000e+00 3.4023094620622488e-13 0.0000000000000000e+00  0.0000000000000000e+00 2.9519043338667207e-13 0.0000000000000000e+00  0.0000000000000000e+00 -2.2417905211209732e-13 0.0000000000000000e+00  0.0000000000000000e+00 -4.1257708287731261e-14 0.0000000000000000e+00  0.0000000000000000e+00 -6.6211050207294827e-14 0.0000000000000000e+00  0.0000000000000000e+00 3.5093891662937174e-13 0.0000000000000000e+00  0.0000000000000000e+00 -3.5840277303946906e-13 0.0000000000000000e+00  0.0000000000000000e+00 -2.3157706856990024e-13 0.0000000000000000e+00  0.0000000000000000e+00 9.4175073581773362e-14 0.0000000000000000e+00  0.0000000000000000e+00 -9.8909564696758915e-14 0.0000000000000000e+00  0.0000000000000000e+00 -1.9601152343052711e-13 0.0000000000000000e+00  0.0000000000000000e+00 -2.4158474131864348e-13 0.0000000000000000e+00  0.0000000000000000e+00 1.7813298365750329e-13 0.0000000000000000e+00  0.0000000000000000e+00 2.9502284078083187e-14 0.0000000000000000e+00  0.0000000000000000e+00 -2.7172148311883594e-13 0.0000000000000000e+00  0.0000000000000000e+00 1.7667253380661016e-13 0.0000000000000000e+00  0.0000000000000000e+00 3.4940664137597564e-13 0.0000000000000000e+00  0.0000000000000000e+00 2.2975749170649244e-13 0.0000000000000000e+00  0.0000000000000000e+00 -1.7749852593539396e-13 0.0000000000000000e+00  0.0000000000000000e+00 9.5982679544764043e-14 0.0000000000000000e+00  0.0000000000000000e+00 -1.7272213666894836e-13 0.0000000000000000e+00  0.0000000000000000e+00 8.8111812520483387e-14 0.0000000000000000e+00  0.0000000000000000e+00 -3.1105786188961353e-13 0.0000000000000000e+00  0.0000000000000000e+00 -3.3814202408343104e-13 0.0000000000000000e+00  0.0000000000000000e+00 1.6279227477291671e-13 0.0000000000000000e+00  0.0000000000000000e+00 1.8127534501700697e-13 0.0000000000000000e+00  0.0000000000000000e+00 1.6474951699112185e-13 0.0000000000000000e+00  0.0000000000000000e+00 2.7155987596320432e-14 0.0000000000000000e+00  0.0000000000000000e+00 3.1757003171654688e-13 0.0000000000000000e+00  0.0000000000000000e+00 -1.6521039665718241e-13 0.0000000000000000e+00  0.0000000000000000e+00 -3.5816335503112592e-13 0.0000000000000000e+00  0.0000000000000000e+00 9.6060490397475579e-14 0.0000000000000000e+00  0.0000000000000000e+00 8.1653511745427237e-14 0.0000000000000000e+00  0.0000000000000000e+00 2.9299377316012384e-13 0.0000000000000000e+00  0.0000000000000000e+00 -2.5928371758540988e-13 0.0000000000000000e+00  0.0000000000000000e+00 0.0000000000000000e+00 0.0000000000000000e+00  0.0000000000000000e+00 -1.4146611567975170e-13 0.0000000000000000e+00  0.0000000000000000e+00 5.5359428979142100e-14 0.0000000000000000e+00  0.0000000000000000e+00 1.4861872867900295e-13 0.0000000000000000e+00  0.0000000000000000e+00 -1.0560129802994961e-13 0.0000000000000000e+00  0.0000000000000000e+00 1.5496330590009608e-14 0.0000000000000000e+00  0.0000000000000000e+00 2.8185485032195925e-14 0.0000000000000000e+00  0.0000000000000000e+00 1.6796370375312850e-13 0.0000000000000000e+00  0.0000000000000000e+00 -8.3113961596320379e-14 0.0000000000000000e+00  0.0000000000000000e+00 -1.5819544901272845e-14 0.0000000000000000e+00  0.0000000000000000e+00 1.2541912367055287e-13 0.0000000000000000e+00  0.0000000000000000e+00 -1.4299839093314778e-13 0.0000000000000000e+00  0.0000000000000000e+00 -2.0567802551738134e-13 0.0000000000000000e+00  0.0000000000000000e+00 5.4994316516418805e-14 0.0000000000000000e+00  0.0000000000000000e+00 -1.6079911985346010e-13 0.0000000000000000e+00  0.0000000000000000e+00 -1.9710087536848840e-14 0.0000000000000000e+00  0.0000000000000000e+00 1.5734551508311036e-13 0.0000000000000000e+00  0.0000000000000000e+00 -7.5482512580382853e-14 0.0000000000000000e+00  0.0000000000000000e+00 9.5168658316397369e-15 0.0000000000000000e+00  0.0000000000000000e+00 9.8011747165472143e-14 0.0000000000000000e+00  0.0000000000000000e+00 2.2028252402631274e-13 0.0000000000000000e+00  0.0000000000000000e+00 1.3119508312183104e-13 0.0000000000000000e+00  0.0000000000000000e+00 1.8376529230377562e-13 0.0000000000000000e+00  0.0000000000000000e+00 8.3562870361963753e-14 0.0000000000000000e+00  0.0000000000000000e+00 -6.9347426116589942e-14 0.0000000000000000e+00  0.0000000000000000e+00 1.4572775622825954e-13 0.0000000000000000e+00  0.0000000000000000e+00 -7.6871137028773060e-14 0.0000000000000000e+00  0.0000000000000000e+00 1.3191932259706906e-14 0.0000000000000000e+00  0.0000000000000000e+00 -1.8083840715178076e-13 0.0000000000000000e+00  0.0000000000000000e+00 6.7162736790458797e-14 0.0000000000000000e+00  0.0000000000000000e+00 -7.1376493737298017e-14 0.0000000000000000e+00  0.0000000000000000e+00 -2.2653133404406864e-13 0.0000000000000000e+00  0.0000000000000000e+00 -2.3843639450893112e-13 0.0000000000000000e+00  0.0000000000000000e+00 -2.1071178914279581e-13 0.0000000000000000e+00  0.0000000000000000e+00 1.8043738198780599e-13 0.0000000000000000e+00  0.0000000000000000e+00 -2.0519320405048645e-13 0.0000000000000000e+00  0.0000000000000000e+00 2.4139320691196888e-13 0.0000000000000000e+00  0.0000000000000000e+00 -9.2092136909188051e-14 0.0000000000000000e+00  0.0000000000000000e+00 1.1835629242443029e-13 0.0000000000000000e+00  0.0000000000000000e+00 1.0813314346817829e-13 0.0000000000000000e+00  0.0000000000000000e+00 5.8358139533639907e-14 0.0000000000000000e+00  </DataArray> 
</PointData> 
</Piece>
</UnstructuredGrid>
</VTKFile>