<?xml version="1.0"?>
<VTKFile type="UnstructuredGrid"  version="0.1"  >
<UnstructuredGrid>
<Piece  NumberOfPoints="201" NumberOfCells="657">
<Points>
<DataArray  type="Float64"  NumberOfComponents="3"  format="ascii">-0.021093841071826 -0.00904262866540529 450.8368421777806  -0.01062009437662238 -0.001254057922511877 -450.8567149479845  853.1494916646982 0.005520687134008243 -429.0687143358476  1622.156942657227 0.0009444153543638014 -365.5565679013382  2231.586450707535 -0.0009311808796681376 -266.1841307078208  2622.365404542765 -0.002634001874161099 -140.1380092636373  2756.931794026994 -0.01215541189196608 0.004892519275855891  2622.370466471748 -0.01588417104445684 140.1331732684359  2231.585519517299 -0.006333985864690915 266.1701270458531  1622.150013756547 -0.002042653311207052 365.5620896930525  853.15148200292 0.01191698807210232 429.04459054826  1080.60544943829 -802.6128855141581 -392.6159436182647  1073.657152348516 623.4732800382433 402.2424225200755  2624.274788024684 -713.7448409471124 -67.26031373649137  1890.698694540177 -779.2870423719479 301.7383907568803  2387.474852864797 722.0529362250477 190.6136345169663  2377.57983289295 722.025429185954 -193.9234095262603  1206.581402391379 718.3799675080194 -387.4970787445138  415.8699956171216 -718.5549845582516 429.0580398919428  1878.490174053173 -718.0945314659516 -308.073200574097  1307.633127687717 -1408.997747549423 -318.2964642071992  1942.144003873286 -1380.517686536921 -219.5853848134035  1331.634554604444 -1973.367935105663 -210.936289071922  1875.810400431972 -1851.543725110447 -103.982177844983  1176.990070885364 -2348.828606534697 -88.32498275938659  1675.805043604447 -2107.814291306499 22.3490397895368  880.2298883582745 -2509.378781896983 40.30765788109827  1276.988478760402 -2180.382411109082 152.8644749752489  460.0161501361988 -2443.354127305121 162.5186698608225  817.5198925627064 -1993.660395880491 268.1783551311911  -31.76889733564706 -2141.532121114818 268.6859341554351  1958.309886670006 -1712.788268425371 129.0178407291206  1878.513125626999 718.0833899943943 308.072416340284  1902.740520050109 1389.650603061054 227.1010550140019  2303.551437557826 1331.250922567493 102.9035756978689  305.9355195831885 -1591.884547249512 358.7040422822635  1120.264009563351 -1395.790058890236 338.3888660076768  1307.559972493374 1328.689961863226 328.0834558608321  1259.41014008924 1942.990357378691 230.1749639399843  2629.31041752782 -696.3565430681931 67.25316089571527  2318.158328236288 -1438.944824540191 7.790496054451141  2392.778189822356 -722.6945506766609 -188.7329449459617  415.8667232857409 718.5609524369954 -429.0346461239461  1859.841639427038 700.1016364744548 -312.2751552182139  1888.187311457231 1382.189725608468 -231.641342070606  571.285448774519 -2370.567144672397 -183.0094754677816  -399.6938223350139 -2472.365027194824 153.8705401416624  558.0121539983689 -1445.528391760905 -368.2373083740037  2287.829690026997 1347.15552964995 -106.3447122852565  1710.88898823031 1946.177428503538 -127.9845069971754  1215.232519387486 1894.687734286911 -247.5738785397192  959.1211281385862 2358.923078666414 -137.9529089411776  423.8551305546414 2215.644164680046 -240.9296359742212  124.0159869683422 2553.757292300165 -125.1925467930414  -434.4884291988428 2279.539815820107 -222.4403029552177  -716.7206121207922 2507.9596866402 -94.4410725495306  -1263.316861382343 2142.22188219215 -170.6216896360117  -137.8669586303113 2655.87675375887 8.369580970449702  -880.9228395858518 -2058.555434902329 247.8256419551702  -1216.36870057477 -2275.773883159888 122.8557751164155  -1483.008697957069 2225.79097556738 -46.14776169603303  -1959.126904717394 1741.235849708999 -117.0656802850283  -2086.637470514177 1737.193398965592 10.47854692404431  -2447.842214911142 1146.192556613452 -73.19451233155409  -2481.36814537631 1087.958839028315 68.27946851260188  -2175.194585992459 1086.674151781046 -208.1983421767722  -2006.915295636143 1607.755754259125 146.9157873994273  -2589.834579219071 475.2269610923602 -132.8814918599579  -2292.879963940835 894.5832299536178 200.470666715978  -2205.404909680546 305.2005897251715 -266.9832664490825  -2475.837496002727 -345.1812025422664 -190.7495228540015  -1706.195561360117 1348.806248452469 271.8408306843697  -381.3007889547141 -1103.25604888398 406.0336116085259  -1661.528736937853 -1760.266894679591 202.2796843537689  -1982.113486852252 -467.7603715581383 -304.5318495166442  -2140.660925503014 -1097.539368937129 -216.0583122413279  -2649.187012076447 301.6071480557166 114.69123366891  -922.2709023764238 1774.889700180459 -301.338572020561  -1887.510193337505 576.0692068267124 315.1199596427177  593.3772003468831 1793.594287806129 319.7242960828962  -2552.370707921303 -898.8467106818673 -76.90275271364722  -1606.406318519536 186.8877179272198 -366.0670745708599  -1251.51952722785 1026.749157528567 363.0882247559481  -1543.238810883462 -1181.137588198861 -316.7379812472501  -1615.254685440718 -1757.948542641647 -212.7080301799215  -1361.247882884466 1979.565959393084 204.0410246733954  -694.8408871954115 -2568.149339468288 29.19419037728212  -1318.303641018931 172.9001479310039 395.6107979858907  -1947.056350229797 -249.6865413371875 317.6955454609165  -932.6603388792661 -1763.54868256137 -302.3787348697528  -935.3562052588869 -2247.377544596566 -187.6049555990976  -804.0597984610436 -1117.230119047192 -388.251248540648  1397.847335388736 2291.195150889728 -12.79868410043453  -1879.945045745612 -1887.639123705674 80.40889246583964  -2263.799710003533 -1274.944815449391 140.6703594319707  493.8706414335982 2308.311404247762 210.1675380159458  -178.3585712123148 2082.354681582663 280.2875882591661  -61.81294475813844 1569.67458568087 364.8292839897104  -747.851007638263 663.4156079252767 419.5963154158739  -1246.44663703422 -1440.178502554279 320.8443688238999  650.5812540904534 1753.533854762818 -323.1057432508998  -1545.375262425533 -2124.9545839005 -98.9881743765313  -204.3831204846857 1345.657498848949 -388.2254198217586  -453.0529181815013 577.1252158227809 -434.0941004517187  -306.8395800504128 2484.701555131205 153.8378113466526  -583.329558127034 -408.5304807847729 435.3818328225557  -199.3217813638632 -2180.417851155415 -257.4745754319929  -1259.97653366629 -656.2722925604591 386.1311660980289  -1941.281383389242 -1055.976454603353 266.8077591643562  -2416.167550796614 -507.4382719778591 200.6624888917802  -2642.919501503514 -658.599572360518 63.6671841061543  -2745.050063212587 -85.65076765623007 -39.42120140714811  -1059.977403141401 1143.207081112408 -369.3195171970424  -1607.048167766515 1264.095539500255 -298.4957150182049  -234.5200121876057 -2503.588952811559 -148.2968893104523  -93.85742172305365 1966.279164212538 -304.5240197907504  1099.462434903948 2338.345485599918 118.3804015694393  2376.816535307573 -690.762504001612 197.4355792302967  137.9226914938706 -754.1049743758582 -432.0155476284255  435.7896281769335 -2594.209933544415 -69.83878140822833  -840.1577751250827 1700.044134174898 319.6073428446803  2635.488770865536 669.1887699692244 -68.69465729812352  1761.586121711925 1928.466241553015 116.6506641321434  2077.924302478838 1747.667092914412 -5.184684960370321  -2105.065030050453 -1580.784414392997 -114.6550692452197  -913.4484668129606 2500.932108955258 35.29843632357255  -1532.54028901204 2156.869185094343 82.95109083214946  -149.6660512039878 -1627.421984529303 -356.7931164907748  -643.3734695025538 -297.1606306198571 -435.741025410773  -1355.893805698519 -476.7738357035975 -385.0003029813807  636.8910750951985 2584.171218608419 -23.17445934067658  74.60610711104334 -2642.285053458159 50.39066773610323  1523.023906323003 -1681.065427471789 246.3835659019003  2640.129031118398 677.753084907976 60.96869322291759  1207.246936586505 -713.2000081273241 387.7275553044607  -2331.809883985955 -1417.465627252097 11.20278731000609  -493.8896445112829 -1756.019655669154 330.0510460932431  1344.33709129764 1288.143567464257 -328.7375414204366  -2362.997448103206 212.0833411530961 230.8313614819681  619.2648760112136 -1981.535419335288 -284.5256126309689  676.0407424619931 1278.410896088461 380.4496996489038  392.7481359844725 2572.708640128291 95.27573191186976  -1715.237360896245 1667.773252969056 -212.6567462599915  2305.883363489052 -1282.044961719562 -118.5209065763593  -42.25972879792725 692.6289601128043 435.4217334783628  2088.978701861001 -1248.022926985646 205.7709101254035  -2676.742801534172 633.8809586355277 -10.32383810995521  -1425.014367154198 -2276.732159590917 4.363013563701648  -870.2869329793729 -2485.037953538905 -75.15176178198018  2473.316574891074 1174.882521536224 -3.162468264805539  -616.0388801935305 1311.572906130747 379.9427349595161  766.6032386501754 1191.07219581735 -383.9848826497167  -930.7431099777384 195.6353647085349 -423.4948827128451  -1008.137280756171 2327.285281784231 144.0117171561031  2345.174369407821 -1192.418230568357 124.7146794319821  -187.8314733237195 -2640.097748451062 -45.5325550595489  -1769.512987826663 691.9160902203935 -326.4959964205255  -1209.779290355693 588.2053380282122 -393.4542713197366  -771.2671655927743 2140.420091968407 237.3803302170271  -1938.576623049537 -1885.299357603397 -25.3694130656145  0.0009797997415457442 0.004068303729655408 -0.00202369183454039  -880.2317440186372 -1041.84365371613 12.49919682276261  1331.016134142812 406.300720003784 -2.064896146294213  -530.2961400163241 1095.139458212727 99.44813676860683  992.1754277457452 -776.3300644026251 90.47495432560898  -646.5795806977852 113.6614513540004 -200.8045146884353  -1368.9738614405 206.7808680396723 0.1645127535118905  261.5649546865983 1238.721363220463 -86.36536289492548  924.7508019414397 -610.4700351271499 -135.1965373612248  -719.4199912944588 -116.0079097627014 194.79116289806  689.7548425906351 921.7368297045725 157.1732905995065  -254.7015726164757 -1051.913993363631 -170.7101189976244  227.7633621883758 -1518.896073882116 0.8330852201867597  549.27583409470
[...]
<PointData  Vectors="Coriolis"> 
<DataArray  type="Float64"  Name="Coriolis"  NumberOfComponents="3" format="ascii">-8.8478150942794436e-14 2.0899413139391871e-13 0.0000000000000000e+00  -1.2419358289621673e-14 1.0457564723567461e-13 0.0000000000000000e+00  5.2978351529823936e-14 -3.3210867847495261e-11 0.0000000000000000e+00  8.1425725311234243e-15 -5.6897227622903036e-11 0.0000000000000000e+00  -9.7146786550531516e-15 -6.7175371494326641e-11 0.0000000000000000e+00  -2.6582772249432844e-14 -6.8845194823023039e-11 0.0000000000000000e+00  -1.2049936069898083e-13 -6.8564225348040491e-11 0.0000000000000000e+00  -1.5730294470249760e-13 -6.8894964041415244e-11 0.0000000000000000e+00  -6.3130992262465436e-14 -6.7166301068438807e-11 0.0000000000000000e+00  -2.1487020194740205e-14 -5.6829064412195475e-11 0.0000000000000000e+00  1.1755506059959461e-13 -3.3230952077014468e-11 0.0000000000000000e+00  -2.4412056062792816e-11 -3.9507998798374063e-11 0.0000000000000000e+00  1.9244774034041251e-11 -4.0153868213122957e-11 0.0000000000000000e+00  -1.4498588709875691e-11 -6.6178299531977137e-11 0.0000000000000000e+00  -2.0137207802867294e-11 -5.9984687670628882e-11 0.0000000000000000e+00  1.6181339711146269e-11 -6.5717385905687345e-11 0.0000000000000000e+00  1.5992153586840791e-11 -6.5752248280917319e-11 0.0000000000000000e+00  2.1658102910550595e-11 -4.3679545511036028e-11 0.0000000000000000e+00  -2.3401644726521020e-11 -1.6151129636029141e-11 0.0000000000000000e+00  -1.8824675232138920e-11 -6.0032324502876682e-11 0.0000000000000000e+00  -3.7598076342298923e-11 -4.2311847578981083e-11 0.0000000000000000e+00  -3.1736718894458679e-11 -5.5386538566231315e-11 0.0000000000000000e+00  -4.4744714574897595e-11 -3.7284259221040130e-11 0.0000000000000000e+00  -3.7609434260075022e-11 -4.7960035757808260e-11 0.0000000000000000e+00  -4.7486403065393888e-11 -2.9771398106190400e-11 0.0000000000000000e+00  -4.1426750172693699e-11 -4.1534954491572714e-11 0.0000000000000000e+00  -4.9833771466369719e-11 -2.1667995154009980e-11 0.0000000000000000e+00  -4.6250998842245888e-11 -3.3686220219225452e-11 0.0000000000000000e+00  -5.2568423364134683e-11 -1.2225772345331160e-11 0.0000000000000000e+00  -4.9143777484896868e-11 -2.4581978191509891e-11 0.0000000000000000e+00  -5.2854092013130162e-11 9.8284960176788042e-13 0.0000000000000000e+00  -3.5628563540348854e-11 -5.1183995890093990e-11 0.0000000000000000e+00  1.8713684993045008e-11 -6.0259885294061336e-11 0.0000000000000000e+00  3.2187030569885558e-11 -5.4720732945242708e-11 0.0000000000000000e+00  2.7163563928056944e-11 -5.9065131608327050e-11 0.0000000000000000e+00  -4.5837005054013139e-11 -1.0437335627128194e-11 0.0000000000000000e+00  -3.8689528616297872e-11 -3.7729257146208141e-11 0.0000000000000000e+00  3.5938668813432943e-11 -4.2954653877960424e-11 0.0000000000000000e+00  4.5188848938160807e-11 -3.6065681410127288e-11 0.0000000000000000e+00  -1.4196547866628154e-11 -6.6418197666511378e-11 0.0000000000000000e+00  -2.8557352100146142e-11 -5.7973112279007834e-11 0.0000000000000000e+00  -1.6171649837847946e-11 -6.6019718757266610e-11 0.0000000000000000e+00  2.3460602497934470e-11 -1.6116594038208283e-11 0.0000000000000000e+00  1.8559291283374952e-11 -5.9931376554292720e-11 0.0000000000000000e+00  3.2184282211394008e-11 -5.4386050910253567e-11 0.0000000000000000e+00  -5.2161685665381261e-11 -1.5457024777106851e-11 0.0000000000000000e+00  -5.3064623924015146e-11 1.0945181718995425e-11 0.0000000000000000e+00  -4.2119491575474576e-11 -1.9624874083876681e-11 0.0000000000000000e+00  2.7804701970026701e-11 -5.8846001334865208e-11 0.0000000000000000e+00  4.0263653654524638e-11 -4.4435350742225708e-11 0.0000000000000000e+00  4.5003637329729126e-11 -3.5684351932840836e-11 0.0000000000000000e+00  4.9436928887071717e-11 -2.5075384643681305e-11 0.0000000000000000e+00  5.2260080389933719e-11 -1.2330819100952722e-11 0.0000000000000000e+00  5.2961491104569580e-11 -2.9918773782656017e-12 0.0000000000000000e+00  5.2666977592370639e-11 1.2484419803393961e-11 0.0000000000000000e+00  5.0888595311557114e-11 1.8391079503166173e-11 0.0000000000000000e+00  4.6603043061197405e-11 3.4282540740376773e-11 0.0000000000000000e+00  5.2317326928057493e-11 3.6812113813952655e-12 0.0000000000000000e+00  -4.9395224493272855e-11 2.5980566531883736e-11 0.0000000000000000e+00  -4.7500530961593824e-11 3.1510118837218036e-11 0.0000000000000000e+00  4.4453454359028034e-11 3.7319488390331308e-11 0.0000000000000000e+00  3.6420918476051854e-11 5.0625141413354460e-11 0.0000000000000000e+00  3.4607302108805584e-11 5.1714888597956560e-11 0.0000000000000000e+00  2.3128445854054779e-11 6.2022177877163046e-11 0.0000000000000000e+00  2.1926483727922643e-11 6.2607533263993835e-11 0.0000000000000000e+00  2.4737361971984914e-11 6.0805191057163328e-11 0.0000000000000000e+00  3.4331117285233554e-11 5.2979158892711960e-11 0.0000000000000000e+00  1.0352684492924538e-11 6.7364146927479845e-11 0.0000000000000000e+00  2.0160213596450580e-11 6.3582333379016714e-11 0.0000000000000000e+00  7.8645280627153322e-12 6.6204115173297187e-11 0.0000000000000000e+00  -7.8523968358812675e-12 6.7481936229558610e-11 0.0000000000000000e+00  3.3473851271158085e-11 5.1916340944291687e-11 0.0000000000000000e+00  -3.4472629957284456e-11 1.4352875945192157e-11 0.0000000000000000e+00  -3.9994618948436662e-11 4.6381933848885570e-11 0.0000000000000000e+00  -1.2214090425339353e-11 6.2787631086593964e-11 0.0000000000000000e+00  -2.5352356671463353e-11 6.0250421558797510e-11 0.0000000000000000e+00  6.6811158197060660e-12 6.7993243091444384e-11 0.0000000000000000e+00  4.5978287152290755e-11 2.9231986645443928e-11 0.0000000000000000e+00  1.5416186487881180e-11 6.0884866413787529e-11 0.0000000000000000e+00  4.7847662383272957e-11 -1.9362469728860741e-11 0.0000000000000000e+00  -1.8346142297678989e-11 6.3931132188681138e-11 0.0000000000000000e+00  5.4788538485560416e-12 5.6028488850293505e-11 0.0000000000000000e+00  2.9895839536614013e-11 4.3511040813652312e-11 0.0000000000000000e+00  -3.1601552021287891e-11 4.9739481864222870e-11 0.0000000000000000e+00  -4.0249928652500243e-11 4.5554847740928267e-11 0.0000000000000000e+00  4.5043996729506699e-11 3.8005350414296360e-11 0.0000000000000000e+00  -5.1036550350409079e-11 1.7345029662192996e-11 0.0000000000000000e+00  5.2619185397091306e-12 4.8480106936145069e-11 0.0000000000000000e+00  -6.5465855853512155e-12 6.2990855818650083e-11 0.0000000000000000e+00  -4.5890311561602187e-11 2.9528899806440485e-11 0.0000000000000000e+00  -4.9871167681253680e-11 2.5649404074536003e-11 0.0000000000000000e+00  -3.3910840924792878e-11 2.9308047371159576e-11 0.0000000000000000e+00  4.4954061215352558e-11 -3.4917010590517473e-11 0.0000000000000000e+00  -3.8563913647676142e-11 4.7774677480764570e-11 0.0000000000000000e+00  -2.7147408295180514e-11 5.9331216734288767e-11 0.0000000000000000e+00  5.2399698156727812e-11 -1.3758665748502052e-11 0.0000000000000000e+00  5.2185756462521169e-11 5.7773575403922339e-12 0.0000000000000000e+00  4.5235455662246805e-11 2.2481977393378111e-12 0.0000000000000000e+00  2.1396167238224885e-11 2.8687720821668079e-11 0.0000000000000000e+00  -3.8878619226666458e-11 4.0477602824294965e-11 0.0000000000000000e+00  4.7260285834249766e-11 -2.1234617802296412e-11 0.0000000000000000e+00  -4.3931755864774584e-11 3.9498186035351747e-11 0.0000000000000000e+00  4.0598666230127759e-11 7.3490076586518422e-12 0.0000000000000000e+00  1.8939101451911066e-11 1.7848874173320958e-11 0.0000000000000000e+00  5.3034688286345683e-11 8.3477218352954822e-12 0.0000000000000000e+00  -1.3858946106288541e-11 2.2925134727350085e-11 0.0000000000000000e+00  -5.3102199120214642e-11 5.9473263412019040e-12 0.0000000000000000e+00  -1.9714967436808281e-11 4.5320439302791434e-11 0.0000000000000000e+00  -2.6316815573613494e-11 5.8469173514363885e-11 0.0000000000000000e+00  -1.1475607269619745e-11 6.6584427583690597e-11 0.0000000000000000e+00  -1.3387049490798528e-11 6.5718043209056582e-11 0.0000000000000000e+00  -1.6085422771554915e-12 6.8021477444431342e-11 0.0000000000000000e+00  3.3390903962119683e-11 3.7464689327551268e-11 0.0000000000000000e+00  3.2679154816703078e-11 5.0759363902704737e-11 0.0000000000000000e+00  -5.3404951416085335e-11 6.5331170777669073e-12 0.0000000000000000e+00  5.1047718484885716e-11 3.0609877431742027e-12 0.0000000000000000e+00  4.8042697843925736e-11 -2.8331429983495465e-11 0.0000000000000000e+00  -1.5423157655039400e-11 -6.6048681413821440e-11 0.0000000000000000e+00  -2.4642583143331905e-11 -5.1037391400721207e-12 0.0000000000000000e+00  -5.2155679348936891e-11 -1.0898941622462827e-11 0.0000000000000000e+00  4.5673811908776828e-11 2.7281124068641962e-11 0.0000000000000000e+00  1.3529843149797836e-11 -6.6434518085535950e-11 0.0000000000000000e+00  3.9566887691692575e-11 -4.5386447490400749e-11 0.0000000000000000e+00  3.4337063436879019e-11 -5.1613620750688325e-11 0.0000000000000000e+00  -3.2942133668795457e-11 5.4250970750157597e-11 0.0000000000000000e+00  4.9744695557987106e-11 2.2883786191679814e-11 0.0000000000000000e+00  4.3706546477764355e-11 3.8828346901323795e-11 0.0000000000000000e+00  -4.6660512745926850e-11 5.1487348247742996e-12 0.0000000000000000e+00  -9.6966514493076211e-12 2.5318132002443243e-11 0.0000000000000000e+00  -1.4115627398928882e-11 4.8920000193541287e-11 0.0000000000000000e+00  5.1197936728441671e-11 -1.5627657545396438e-11 0.0000000000000000e+00  -5.2728259995325543e-11 -1.5621420583403293e-12 0.0000000000000000e+00  -4.0098250664048725e-11 -4.4486238161367705e-11 0.0000000000000000e+00  1.3734798824921214e-11 -6.6338241161923616e-11 0.0000000000000000e+00  -2.1413754606475299e-11 -4.3567828112620890e-11 0.0000000000000000e+00  -2.8341776096648161e-11 5.8070610140542984e-11 0.0000000000000000e+00  -4.7941905924305387e-11 1.6402536813398898e-11 0.0000000000000000e+00  3.4922546595271452e-11 -4.4245389666042129e-11 0.0000000000000000e+00  5.1814790975527499e-12 6.7565114235372191e-11 0.0000000000000000e+00  -5.0176904773695022e-11 -1.8985752820797212e-11 0.0000000000000000e+00  3.8153505535010661e-11 -2.4231866350957487e-11 0.0000000000000000e+00  5.2209298025365553e-11 -9.7458169577145069e-12 0.0000000000000000e+00  3.8260258643637758e-11 4.8535874612174074e-11 0.0000000000000000e+00  -2.6518393172276576e-11 -5.9957634547117339e-11 0.0000000000000000e+00  2.2722435085953078e-11 1.7575114466780730e-12 0.0000000000000000e+00  -2.8486564486084196e-11 -5.8519954862379779e-11 0.0000000000000000e+00  1.2951689745436777e-11 6.6351155693034545e-11 0.0000000000000000e+00  -4.5546447959674491e-11 3.5329022063770352e-11 0.0000000000000000e+00  -5.0156236611724002e-11 2.1956976425574871e-11 0.0000000000000000e+00  2.3265754962443961e-11 -6.1761549969298977e-11 0.0000000000000000e+00  3.9001036905748170e-11 2.2114107156035232e-11 0.0000000000000000e+00  3.5443038574747163e-11 -2.7742892274929989e-11 0.0000000000000000e+00  6.4723360187519591e-12 3.5841610454020130e-11 0.0000000000000000e+00  4.9325390529133305e-11 2.6768327827884988e-11 0.0000000000000000e+00  -2.4908751611190469e-11 -6.1138438601860670e-11 0.0000000000000000e+00  -5.2810551144752250e-11 5.1080887247786524e-12 0.0000000000000000e+00  1.8915733664610987e-11 5.8208710225590083e-11 0.0000000000000000e+00  1.7907908556864390e-11 4.4107625380352673e-11 0.0000000000000000e+00  5.0328391639403418e-11 2.2515866198673702e-11 0.0000000000000000e+00  -3.7721943410706687e-11 4.8341196676534748e-11 0.0000000000000000e+00  4.0105801080018362e-14 -9.2935761763875335e-15 0.0000000000000000e+00  -3.2848202287296413e-11 3.2975572217131177e-11 0.0000000000000000e+00  1.2837524393080135e-11 -4.9830302529577408e-11 0.0000000000000000e+00  3.5070805045207754e-11 2.0375915525499596e-11 0.0000000000000000e+00  -2.4864423510667670e-11 -3.7807043249623892e-11 0.0000000000000000e+00  3.8949386969017756e-12 2.6487915756466350e-11 0.0000000000000000e+00  6.4376337579014514e-12 5.1350880179445660e-11 0.0000000000000000e+00  3.9408700737238229e-11 -1.0029475313619583e-11 0.0000000000000000e+00  -1.9875268887885212e-11 -3.6055457752727569e-11 0.0000000000000000e+00  -3.9181941210618002e-12 2.9032895347144884e-11 0.0000000000000000e+00  2.9667449202993186e-11 -2.6673718006491314e-11 0.0000000000000000e+00  -3.4231666485084218e-11 9.8058892250547077e-12 0.0000000000000000e+00  -4.6004707714303707e-11 -8.1830364914724943e-12 0.0000000000000000e+00  1.3672846204905806e-11 -2.2129952041335075e-11 0.0000000000000000e+00  -3.7888347571295250e-11 8.1761118663147052e-12 0.0000000000000000e+00  -4.8208196924478231e-12 -1.9705953698871757e-11 0.0000000000000000e+00  3.5469021099166036e-11 3.4297908755531896e-11 0.0000000000000000e+00  -1.6814036225817895e-11 5.0415270022755825e-11 0.0000000000000000e+00  2.1826493674609081e-12 -5.2020735874991008e-11 0.0000000000000000e+00  2.4080826482588816e-11 7.6203795401032521e-12 0.0000000000000000e+00  4.7568386885401580e-11 -1.0014825902325911e-11 0.0000000000000000e+00  2.8951349075937769e-11 -4.2924424706346547e-11 0.0000000000000000e+00  3.8369867323580441e-11 -4.0507148171143552e-11 0.0000000000000000e+00  1.8816258069385762e-11 4.9650989745019153e-11 0.0000000000000000e+00  -1.4724863225981395e-11 -5.8298505102633576e-11 0.0000000000000000e+00  3.4288629947327022e-11 1.2807074280491627e-11 0.0000000000000000e+00  -1.6366914366986130e-11 5.6470630377587330e-11 0.0000000000000000e+00  2.8055861548985290e-12 -5.6815647272152165e-11 0.0000000000000000e+00  -3.7990883073756382e-11 -4.0102158783436601e-11 0.0000000000000000e+00  1.4912576455046593e-11 5.3862416133383282e-11 0.0000000000000000e+00  -1.7678814023489575e-11 -1.3765328480391744e-11 0.0000000000000000e+00  -4.7812064758655752e-11 1.8645503339698566e-11 0.0000000000000000e+00  -4.9189501950576466e-11 1.7679174613660544e-11 0.0000000000000000e+00  -4.5172632794718360e-11 -2.1708835523492955e-11 0.0000000000000000e+00  3.6641137962048792e-11 4.5490226168520780e-11 0.0000000000000000e+00  -4.4716373198800771e-11 -1.8593181822327972e-11 0.0000000000000000e+00  4.9871366630771460e-11 1.2816866481030889e-11 0.0000000000000000e+00  -2.1621901743505042e-11 3.4714296843532268e-11 0.0000000000000000e+00  2.4646398997753852e-11 -5.3852750535820509e-11 0.0000000000000000e+00  2.7068870454465055e-11 -7.8287120060296992e-12 0.0000000000000000e+00  1.4749768868574504e-11 -2.3879131735315451e-11 0.0000000000000000e+00  </DataArray> 
</PointData> 
</Piece>
</UnstructuredGrid>
</VTKFile>