<?xml version="1.0"?>
<VTKFile type="UnstructuredGrid"  version="0.1"  >
<UnstructuredGrid>
<Piece  NumberOfPoints="201" NumberOfCells="657">
<Points>
<DataArray  type="Float64"  NumberOfComponents="3"  format="ascii">-38.6788445928072 253.6594953652342 206.2750553041442  15.11182680308701 -271.1992742085441 -215.4611942788851  5038.669187005176 -190.3264758684889 -398.8557531077113  8562.997772061239 -65.16738939576385 -535.0500086596279  10411.80453085252 45.78495182885501 -626.882252515917  11282.01860375357 109.6160357486154 -525.4916165449954  11545.03534240309 137.3831803509075 -292.8037307584993  11285.75901715432 165.6539708577739 -66.98570893630968  10413.5711965395 213.9052327680003 38.67147691186408  8565.857184337045 255.5103292955502 1.971263143794189  5014.330248259366 288.7728796669167 66.16798854023864  5795.546863021495 -3027.186303336488 -1758.561706852647  6091.757269949759 2604.712382313511 1121.633549954876  11060.07394831813 -1908.302476287635 -1157.577224419787  9108.732564168366 -2287.500951451153 -1011.143960006728  10596.67636381871 2322.70940195608 842.7789847798699  10636.57441760279 2233.610598108501 253.3863728809269  6735.852980722848 2524.282439987392 720.271243543377  2353.503951853455 -2619.780067781571 -1192.141044366886  9049.598184004115 -2314.824144966389 -1553.838495030592  6271.88893590983 -4662.845851974996 -2490.776467528349  8642.433400381755 -4099.124640869823 -2198.032125837129  5798.500179548272 -5920.505890320301 -2862.113194395422  7886.978657165234 -5245.410544008232 -2432.371035594225  4849.021398913223 -6740.761255048008 -2918.277937695632  6945.828425621584 -5929.73604443495 -2460.867979514689  3523.128133039424 -7189.270091789008 -2867.529336194096  5427.938195715317 -6342.176273506435 -2507.640105517197  1781.323480137627 -7245.773518426115 -2801.679852171161  3680.576597872099 -6232.5112656694 -2532.649128041662  -411.4459519882717 -6778.660621523632 -2640.041725149113  8370.549023313621 -4844.960180790803 -1980.965945501489  9237.889756364242 2547.521970645178 1034.198602510352  8782.700999572036 4379.719766435426 1755.52070676166  9952.620109277412 3976.153683240995 1339.114963223159  1403.690823673719 -5472.814200812465 -2330.187091137781  5592.841440830312 -4566.932031572409 -1997.072667940934  6671.854271598319 4618.348798649048 2022.514971953649  5957.661586657953 6064.514251749021 2548.969190561796  11098.72966585638 -1836.27180674075 -909.7362369756271  9708.987501176578 -3959.768465008489 -1778.412254842858  10532.71690710219 -2048.220293167857 -1390.093658377532  2567.47413630656 2686.180562959593 1049.185215802346  9272.422611195952 2300.889529321652 398.1831879663687  8818.136361073974 4277.820929936994 1162.892469234921  2291.140239958267 -7104.432390754372 -3195.908739046376  -2079.545599443969 -7359.882425074414 -2713.998411580309  2796.08194042174 -5203.883310149986 -2634.134347413306  9933.167949152421 4002.411447740349 1024.940960653575  7666.207859986575 5742.154368104696 1797.044683288205  5944.837620994785 5909.152255957206 2004.313546621597  4491.759671790493 6977.083640764489 2451.536140053042  2250.188797231914 6865.640465005435 2560.160335026595  789.615023065677 7481.884491746008 2801.149596369375  -1789.998664841598 6947.909337593522 2717.716237325108  -2907.619625242189 7248.889509249117 2830.494237746991  -5445.902652916233 6302.11328231203 2497.027302886941  -368.3060580225928 7632.020851357776 3012.556415562347  -4429.953758083416 -6434.435670757349 -2299.070909656506  -5575.592789559209 -6721.507001811761 -2297.347621826403  -6167.321164656943 6336.108679614038 2576.0775402279  -8325.077513568382 4976.864608899875 2028.33524579872  -8679.182910722098 4888.394985301291 2140.336881327514  -10318.12029572387 3139.456151776131 1386.137368431201  -10410.51446777163 2991.832238035218 1548.178186865232  -9673.138405868018 3107.142150870201 1300.794141032797  -8569.962810001882 4649.619410584934 2303.106760288346  -11059.45407734359 1222.741053038444 592.8520753624169  -10086.74489405487 2595.179247479751 1614.756716018401  -10261.29215259301 739.9366217689297 349.4199027560764  -10905.81973296474 -1234.422232686241 -408.9666301538488  -7893.790556397021 4239.865979728446 2318.656479920695  -2402.86271339563 -4024.359676020008 -1628.609321707174  -7712.842670786413 -5384.324484435488 -1660.633099205058  -9652.159685238334 -1767.100335774874 -695.7684128057406  -9722.742102479249 -3523.462503918781 -1372.596655995943  -11222.28121586422 760.8743076599269 823.8440181308265  -4348.630773227129 5677.716408514182 2361.276802298162  -9177.140876461352 1893.217776032527 1388.070836393093  3157.917850090128 6066.577433627702 2780.423598706515  -10853.81481571432 -2762.592085578904 -833.6873376468689  -8424.688573397263 354.5839434231086 242.2160337537521  -6393.795707424962 3696.075175842001 2087.737991820851  -7708.694169390332 -4105.614772681157 -1764.234785261252  -7465.930650567995 -5453.952408699659 -2206.889833400213  -5914.820034887189 5957.09762497673 2863.723424828836  -3269.685653023403 -7443.259797838554 -2756.55189755621  -7254.333204862912 734.1228316836811 746.9268496010162  -9648.084734620086 -836.5709943830108 232.1895433515559  -4752.74877243504 -5865.769049287046 -2609.549074905313  -4433.186386012132 -6822.283645225028 -2849.310978160203  -4546.625094429431 -4298.890564171899 -1968.723471534404  6242.642536126312 6631.444509308509 2332.250938996166  -8270.905632961347 -5554.57845622357 -1737.323498916889  -9981.387094714275 -3854.212334362143 -964.3340172563819  2487.237350788274 7058.450832548018 3054.665295206634  -656.8599412854453 6681.965725006702 3121.599665955654  -135.3475683454323 5616.056695912295 2727.684605564356  -4198.674120723388 2732.899797132719 1556.813164613774  -6446.397912776649 -4784.081784151915 -1602.295502561198  3526.229262663293 5833.754969857252 2204.676586075983  -6870.028969711688 -6273.066690144278 -2348.398729696242  -910.6132038590991 4788.172958968663 2054.201270028837  -2578.927121637475 2070.614629689237 951.4014053084778  -1140.408190455064 7351.21130533731 3186.964729848992  -3574.927419808505 -1498.394855569846 -470.3194682025724  -1170.501467176785 -6916.564831936701 -3139.528027960047  -6966.511500963378 -2324.154343183215 -626.5101176685822  -9290.168988377374 -3389.406800515701 -831.6610490389886  -10751.70663565282 -1628.132611325583 -9.143295876404443  -11157.54486524249 -2046.705515255699 -307.2171896273587  -11471.08727011884 -402.5723710928437 127.5035973775504  -5512.527128102149 3863.88582452757 1739.229256336025  -7693.661393966945 3930.510364895808 1691.544794307141  -1313.639129900975 -7441.787420915521 -3141.192997548142  -231.0724612892862 6372.506882986352 2541.833244858564  5022.966480996836 6883.726431551907 2704.523108898417  10551.70420964445 -1862.073133068993 -811.9012377886507  681.3300009841489 -3206.731795341169 -1636.410227023323  1606.285774677833 -7503.969136080043 -3107.442530034977  -3977.655037449952 5692.741919848387 2863.441836866866  11190.34334893661 2046.389860189784 292.1496533761841  7799.882110840212 5700.547590176902 2121.595427174751  8962.950906150319 5094.25089203184 1610.793335022267  -9213.943424195189 -4741.383743098463 -1694.755177275867  -3708.586234215644 7165.327547354313 2957.67907005226  -6383.395224048315 6178.771362867185 2720.920497392993  -982.9348828121337 -5808.146723831552 -2767.999470902022  -3832.280824204192 -1497.218730464127 -676.272784564335  -7405.05255469056 -2012.476792105401 -829.0632660881781  2997.550360418749 7476.572822800219 2791.715703410647  26.81234926558509 -7641.161998879858 -2933.328978755637  6912.338440060144 -5071.010489277983 -2086.677284058571  11179.98133321296 2092.422899104543 537.4214114886873  6474.99038274565 -2333.112881968339 -1103.901777638668  -10021.32865071622 -4195.918650204614 -1242.943231575393  -2799.38342157455 -5882.403405116188 -2282.714127624376  6988.297651172441 4299.291215807864 1392.282210959326  -10637.97093708753 570.9786645983469 866.0046676833662  2733.133358271597 -6385.726644225563 -3089.76819716944  3786.560447750154 4810.199917920047 2225.425878621791  1942.80439140938 7500.115496028837 3025.694184310901  -7649.405886391909 4949.811330213327 2020.0700591858  9820.804694416485 -3583.928267244614 -1847.697584224628  -161.6722206779957 2987.950832705735 1507.562687833269  9290.489635005322 -3584.469010888707 -1490.437905343118  -11148.71078459688 1674.504041985442 937.2792393403786  -6313.138540065442 -6631.837701593871 -2337.785120350622  -4018.483439454867 -7251.286857494616 -2814.219774006641  10521.92796741293 3470.957614071625 937.0304283145772  -3154.722830110572 4819.009683825891 2478.97816178322  4396.584692405222 4231.122555681407 1585.426915564051  -5373.240810666319 471.9150634555451 294.4589152965438  -4221.698313475611 6822.151102177997 3039.936054906362  10046.28715055851 -3294.778780650184 -1397.640288296783  -1100.460828234501 -7652.67598642972 -3032.399598542491  -8808.978113744026 2091.098628076148 981.6640728581405  -6548.141213643998 1919.234139869051 945.0565591175844  -3355.941562457641 6601.932776181976 3109.8761064885  -8425.63385696007 -5520.088380784396 -1857.283991246594  -0.3050809209495962 -9.481369754956518 -4.974886647610548  -5022.925669984363 -3900.486903412637 -1584.464385261022  7396.395427932604 1593.316344001772 452.28434523549  -2847.713890529301 4122.532333739484 2027.597177812101  5452.797324594038 -2795.074690035241 -1433.05893904512  -3879.425777615455 299.8020956360125 235.940492885067  -7509.001885425174 659.2567980189176 561.1106684770102  1665.261025496405 4630.729181759538 2023.923105462243  5215.508568142398 -2330.080887302365 -1302.740701467795  -4319.997443911309 -423.049904878887 7.978425663089173  4063.090244385706 3630.847205173444 1573.74211916621  -1616.992234663849 -4110.972075296993 -1893.261716700067  1033.423013010302 -5423.782573192877 -2484.041205605924  3370.762203578063 1541.862159778563 542.5023253318672  -
[...]
<PointData  Vectors="Velocity"> 
<DataArray  type="Float64"  Name="Velocity"  NumberOfComponents="3" format="ascii">2.0691171776744290e-05 6.1937924191187484e-04 5.2638085262384982e-05  1.2761073898059675e-04 -7.6708072901745031e-04 -1.0699599337523568e-04  1.1455336802185185e-02 -6.0072719502932332e-04 -4.6347549212448995e-04  1.7860887257110179e-02 -2.4838908335801993e-04 -5.0385769813489877e-04  1.9358598206876017e-02 2.4787631192170906e-05 -6.4574780175781542e-04  1.9431878259310767e-02 2.3247351521360539e-04 -7.6014788751400334e-04  1.9373874161118701e-02 3.4269415547251246e-04 -8.1542517259280923e-04  1.9430646391802260e-02 4.8551584080789911e-04 -8.7776349010417116e-04  1.9383692227694937e-02 6.6675717474539385e-04 -1.0043109095490329e-03  1.7978328085595890e-02 6.8275066917904755e-04 -1.0730928486264127e-03  1.1420462096671195e-02 7.3267881420124707e-04 -5.3571640595301067e-04  1.2045979713897752e-02 -4.2942578820895196e-03 -3.4453638312295734e-03  1.3550752067541598e-02 4.1976711629385845e-03 1.9007855759650594e-03  1.8964250141774511e-02 -1.0220741243546095e-03 -2.3331281784124682e-03  1.7417101518494040e-02 -1.8186579448426869e-03 -3.3315362785579323e-03  1.8704658942978864e-02 2.0871927310929521e-03 8.0726164752087349e-04  1.9069854885744246e-02 1.7519162317237884e-03 9.7170599521674377e-04  1.4678304598604209e-02 3.3054046167671752e-03 2.4139419735188989e-03  5.2900081821856829e-03 -4.1289071155915505e-03 -3.7529226260045725e-03  1.7334371921580532e-02 -2.4234408610464618e-03 -2.6126692665204574e-03  1.1976846810514800e-02 -5.2323538198449813e-03 -4.7598177584109117e-03  1.5488027656617298e-02 -3.4202209363237901e-03 -4.0245569626747432e-03  1.0235362361033409e-02 -5.2094556134212721e-03 -5.5069097617663426e-03  1.3562521988189932e-02 -3.8520310502020705e-03 -4.8882003068416047e-03  8.2349834043633132e-03 -5.3946276981315152e-03 -5.9612991512233565e-03  1.1889486338408330e-02 -4.3565302125070865e-03 -5.4496829803981715e-03  5.8460172753463146e-03 -5.8482218355734609e-03 -6.3734650525965660e-03  9.4983106432902174e-03 -5.2272995859216501e-03 -6.0692717240314817e-03  2.8413223093298164e-03 -6.4712034280839754e-03 -6.7137333063200634e-03  6.7488700107449498e-03 -6.2550682329378460e-03 -6.5507957674457544e-03  -1.1465030796378964e-03 -6.9588434233078386e-03 -6.6713309213657446e-03  1.4667000520920556e-02 -3.4889370625062494e-03 -4.9232268992551367e-03  1.8041587597093622e-02 2.9469726879147017e-03 1.1106415572194981e-03  1.6195609311594018e-02 4.0085582783087968e-03 2.6773233585421063e-03  1.7195881648199848e-02 3.0580335539976324e-03 2.0734833168092382e-03  2.6595923943914914e-03 -6.8446998246845603e-03 -6.2938084265666142e-03  1.1063349747035836e-02 -5.1010806010230864e-03 -5.5313746851080939e-03  1.3425437793941947e-02 5.4499799452341824e-03 3.4388792474231559e-03  1.1351418268625671e-02 5.7306360387132165e-03 4.5180082538393423e-03  1.9070357153777615e-02 -8.8423858814588667e-04 -2.3904394205904833e-03  1.6644193537181794e-02 -2.4824274617698378e-03 -3.9472477717557740e-03  1.8771395285319199e-02 -1.4414863695645468e-03 -2.3728186850385754e-03  6.0737392981116689e-03 4.3123398090037643e-03 3.3011856812287365e-03  1.8408593382131109e-02 2.3212390600125450e-03 1.6204158475554196e-03  1.6476167530246624e-02 3.7164364616402057e-03 3.0489459941036912e-03  3.7640232343227075e-03 -6.4640699230462386e-03 -6.2886421914526910e-03  -4.2341251598587495e-03 -6.4815799044637317e-03 -6.3137878758647431e-03  5.6477190957775871e-03 -6.8739167586005234e-03 -5.3535966258975399e-03  1.7305559344995149e-02 2.9969838696429626e-03 2.2425743720906645e-03  1.4110280306290947e-02 4.6032654216122187e-03 4.1191122489555448e-03  1.1703314739688107e-02 5.5939065901339513e-03 5.0380935972781796e-03  8.6640957730505959e-03 5.9409211759968274e-03 5.6895944806685146e-03  4.7205233530918560e-03 6.5919421939839391e-03 6.3057905311950857e-03  1.8378400887057332e-03 6.3587067728023972e-03 6.4566500373970295e-03  -3.0757527064431880e-03 6.5029158350373073e-03 6.6840062858766619e-03  -4.9339628993366018e-03 6.0091420695121203e-03 6.4777527127228025e-03  -9.5504004662566398e-03 5.4181625309676637e-03 6.1575538529995161e-03  -3.3307374873113691e-04 6.2442553749560885e-03 6.3941746920447538e-03  -8.8844579845460923e-03 -6.1166421821552824e-03 -5.6476593861543899e-03  -1.0420997371513092e-02 -5.4775420188158189e-03 -5.1348301317427235e-03  -1.0503287886076299e-02 5.0116237894140677e-03 5.8450821541525351e-03  -1.4359303539497157e-02 3.9357451351612685e-03 5.0811307589384300e-03  -1.4648691575181658e-02 3.6886521089495089e-03 4.7788300681686205e-03  -1.7576069317133999e-02 1.9366371035483890e-03 3.4851762108500514e-03  -1.7529857983829084e-02 1.8848238063875996e-03 3.2098744869645569e-03  -1.7288818097176990e-02 2.2953093110775779e-03 3.8280374422871846e-03  -1.4716808679176826e-02 3.7995858141553675e-03 4.5908712514025106e-03  -1.8728785510719579e-02 3.9040962734995783e-04 1.8823674892035366e-03  -1.7654236693980040e-02 2.0105956930644786e-03 2.8882601844362082e-03  -1.8927439204514750e-02 5.7688458410035775e-05 1.7554871829531522e-03  -1.9152014358258938e-02 -1.6639903698517826e-03 -8.0560041829610550e-05  -1.4577988690193795e-02 4.3879220089288731e-03 4.4144284779644178e-03  -5.6422715426157699e-03 -5.8143059908069778e-03 -4.6555065895396725e-03  -1.4454949947795726e-02 -4.6721013921945127e-03 -4.1028826503685138e-03  -1.8749927640683794e-02 -2.5414681038667271e-03 -5.5136127007082551e-04  -1.7763489169373380e-02 -3.4937858873322191e-03 -2.0205419768936691e-03  -1.8825397631988795e-02 2.0206946320971251e-04 1.3831418796591160e-03  -8.1795710140152716e-03 6.0167904072942566e-03 6.2675390281547120e-03  -1.7624851382962461e-02 2.1018979279662964e-03 2.2923961825043805e-03  6.5786707536809675e-03 6.9615639557558820e-03 5.1904905878472100e-03  -1.8625071320983202e-02 -2.5113528720853897e-03 -1.3358499731669572e-03  -1.7389068684467657e-02 -2.1635546208639486e-04 1.4996756527158516e-03  -1.2764574400441774e-02 5.0777458817474527e-03 4.1674738959406113e-03  -1.5210320904821122e-02 -4.8200780386560421e-03 -2.8662616786832868e-03  -1.3856454453707825e-02 -4.8983750170142294e-03 -3.7158834184634181e-03  -1.0339014961233919e-02 5.4120247792055218e-03 5.5606580530267284e-03  -6.2618357471044810e-03 -6.0575119883694260e-03 -5.8467288872693975e-03  -1.5497114855636216e-02 1.1332949981342796e-03 1.0829820391308111e-03  -1.9066871792030381e-02 -1.0235449586230515e-03 -4.2963727113430660e-04  -9.5055721224529977e-03 -6.3225158091978588e-03 -4.6866706748419865e-03  -8.4229616529140766e-03 -6.0313638001842544e-03 -5.2064816751004840e-03  -9.9487348728964850e-03 -6.1811972748526860e-03 -3.7907101815034512e-03  1.1559902516846719e-02 5.2301291019797658e-03 4.8551431451452180e-03  -1.4889166568882029e-02 -4.3347961219887066e-03 -3.7766228108131010e-03  -1.7966313576807537e-02 -3.2488930894140791e-03 -2.4842522647034711e-03  5.0464910061039847e-03 6.5367394903217153e-03 5.7230850632050351e-03  -9.6782683848082858e-04 6.9369063053242291e-03 5.9325111058296581e-03  3.8510647584177182e-05 7.1903886372274156e-03 5.3810711487566800e-03  -8.9670930347068353e-03 4.4910800868031642e-03 3.2636836326578656e-03  -1.3082184369336041e-02 -5.2140450071388039e-03 -4.3637555576066887e-03  7.4573830633983566e-03 6.5453631485129296e-03 5.7280500442967166e-03  -1.2414646108877507e-02 -4.9790002716352602e-03 -4.3006108257307241e-03  -1.5710233005801115e-03 6.4952721865293803e-03 5.6902559774462342e-03  -5.5505673705233197e-03 3.2665313235579183e-03 3.1259353205268657e-03  -1.7773712033285515e-03 6.4569301814895895e-03 6.2511772033414809e-03  -8.2138516444029020e-03 -2.5490966913421318e-03 -1.8386812894610797e-03  -2.5011328574520209e-03 -7.0596039512093025e-03 -5.9711204274025308e-03  -1.4948001615450592e-02 -3.1975357954986900e-03 -2.3146680140063375e-03  -1.7858842441882870e-02 -3.3941148626995530e-03 -2.6391994246336998e-03  -1.9055893268506253e-02 -1.6683151540733906e-03 -6.7013051427545979e-04  -1.8853308815857273e-02 -1.9477063741577996e-03 -7.9142064157304277e-04  -1.9052764435633397e-02 -8.2040171126952777e-04 5.0955271983265413e-04  -1.1165335055330513e-02 4.8789472480914179e-03 5.1150522574753944e-03  -1.4586493988051567e-02 3.9696707661895855e-03 4.9342220664223280e-03  -2.7527968659235955e-03 -6.5602675081735248e-03 -6.0977641103542425e-03  -1.0948157444975407e-04 6.8805376370820424e-03 6.5427726125821765e-03  9.4319882629435060e-03 5.7432916156149386e-03 5.1627109227620526e-03  1.8960422367512379e-02 -9.7462066188893086e-04 -2.6837728235951657e-03  1.3758066280981248e-03 -5.4349653397788716e-03 -3.5802549657831125e-03  2.4276041518154984e-03 -6.3022622728165674e-03 -6.4153020004895289e-03  -7.5035703807622119e-03 6.5584601789930282e-03 5.6074921661912009e-03  1.9031008497890921e-02 1.5375742325797847e-03 6.0522504592903513e-04  1.4072233191694008e-02 4.5717534213377282e-03 3.7963317991596183e-03  1.5669654622720013e-02 3.8120192477118075e-03 3.1222134899328863e-03  -1.6413345408507189e-02 -3.9060939347834336e-03 -2.9369218674125341e-03  -6.2574036204257845e-03 5.7806853908522419e-03 6.2199969092049407e-03  -1.0831956646616698e-02 4.9654178216324953e-03 5.6398927879177637e-03  -2.3164224635009653e-03 -7.4736609647024872e-03 -5.5017432288413156e-03  -8.6665588313989007e-03 -2.9323466193749313e-03 -1.1662063637361540e-03  -1.5811731651560645e-02 -3.3265546831912620e-03 -1.1276764732981845e-03  5.8706831129471488e-03 6.1271876474838973e-03 5.9897824552497085e-03  -4.0336964728008976e-04 -6.3934180197438026e-03 -6.4548161316647064e-03  1.2707413392834243e-02 -4.5170752283289033e-03 -5.5621518735945123e-03  1.8913721515703513e-02 1.6474028412369326e-03 6.1311278860938566e-04  1.3542107735830165e-02 -2.7991968354151905e-03 -3.5604662201539233e-03  -1.7664999974519209e-02 -3.3366279214120413e-03 -2.5194808037366711e-03  -6.1061396058748902e-03 -6.7598420173453390e-03 -5.9630546902838116e-03  1.4356909548388112e-02 4.7820094156536168e-03 3.8837372937118469e-03  -1.8984439934606436e-02 2.6513603599885360e-04 1.1139306130139772e-03  4.9009396924090728e-03 -6.7915774640774952e-03 -6.0161652209634641e-03  8.2384819078986024e-03 6.7183224720954353e-03 4.3402721138408326e-03  3.9208084947120244e-03 6.2665715567731001e-03 6.0110270625226220e-03  -1.3742150911153711e-02 4.3686468776773972e-03 5.4137713749025677e-03  1.7009000380337910e-02 -2.3838099586856753e-03 -3.5442311110258215e-03  -1.0151511818470128e-04 5.1116408124493497e-03 3.2924055566166178e-03  1.6683592820643481e-02 -2.5623572157258993e-03 -4.1199014915862635e-03  -1.8443455776446238e-02 7.5546882695408282e-04 2.1572944981780077e-03  -1.1449813433313158e-02 -5.1533374336449351e-03 -4.7000657388378301e-03  -7.5485267028182410e-03 -5.9083813220189184e-03 -5.5034696474855743e-03  1.7951573858659420e-02 2.4867261963773409e-03 1.6148848528125782e-03  -6.2933359474036249e-03 6.5903351925217816e-03 5.0676712184770456e-03  9.7495245791213315e-03 5.6614640192558545e-03 4.5032964578780380e-03  -1.1926474884145367e-02 3.5977503420875286e-04 1.4232287838731755e-03  -7.2476146112517474e-03 5.7937982485553961e-03 6.0159633105946820e-03  1.7544426955178147e-02 -2.0133498886947964e-03 -3.6440998476433163e-03  -2.3680635155838938e-03 -6.3845975322261005e-03 -6.2232869404872096e-03  -1.7412587709277758e-02 1.9708444064720394e-03 3.3466557828859557e-03  -1.3752185908159563e-02 2.4370492925083016e-03 3.2192605623331313e-03  -5.9418722689122622e-03 6.3279327790037440e-03 5.9793113088747471e-03  -1.4989600210688769e-02 -4.2538941952751531e-03 -3.5858020828570007e-03  1.2064553325312417e-04 -9.3857970460659091e-05 -4.3146927469869185e-05  -1.1033785567838504e-02 -5.5170390822082390e-03 -3.7693130955294102e-03  1.6180922908272187e-02 2.3564167735784648e-03 9.7709621526060123e-04  -5.8891982993212284e-03 6.0171465316416666e-03 4.8157189216209428e-03  1.1635038681894748e-02 -3.9088404506281010e-03 -3.7541135614256862e-03  -8.7622699996323817e-03 3.1343537064582575e-04 8.9101328474611976e-04  -1.6047871106714202e-02 7.2059126580075741e-04 1.4213986164371062e-03  3.9446025885446516e-03 6.6610445252903439e-03 5.0436872397126124e-03  1.1354049618656693e-02 -3.5122205234362270e-03 -3.0662443193695968e-03  -9.7894609502062260e-03 -7.7683119964217461e-04 -2.6024894646256195e-04  9.2591262793384112e-03 5.6006680850788863e-03 3.5540913863204319e-03  -3.7852152492663729e-03 -6.2106706487331199e-03 -4.3352096574077329e-03  1.9572991683995803e-03 -7.1184858661494758e-03 -5.8661724393565800e-03  7.9425270053445057e-03 2.5313004523111384e-03 1.6766369626656143e-03  -3.3959032919717918e-03 -6.3173393091815640e-03 -4.9161434075363445e-03  6.8440990331105397e-03 -6.9482276041915884e-04 -1.0403360815060729e-03  -1.0008624451055874e-02 5.4991537143060029e-03 5.0406710006431314e-03  -1.6020632351480109e-02 -3.3799648120898130e-03 -1.5722173974074139e-03  1.6618551155996416e-02 6.9340488428343196e-04 -5.7107303865415698e-04  -2.1151565533603931e-03 4.9692450808965765e-03 3.4863964073913543e-03  3.7881035447078428e-03 7.0526359910627759e-03 5.5557043694761639e-03  1.3941575827958144e-02 4.5347216312002815e-03 3.1050327617722952e-03  1.2793759876472324e-02 5.5587116637093974e-03 3.9791792214397773e-03  -1.4910208350083200e-02 3.1311727151490929e-03 2.9930268567699638e-03  1.6984342660463333e-02 -1.7923644196624448e-03 -2.4359937753317632e-03  -3.5068931034880225e-03 5.7516232527219015e-03 4.8507836274726936e-03  -1.7452655766409003e-02 -2.7922108233841632e-03 -1.4875967186845527e-03  1.7731693523118403e-02 4.7122255724239051e-04 -3.0885544076322667e-04  1.1355580891361645e-02 -5.1802088327241270e-03 -5.0117400672044276e-03  -1.6359525560856798e-02 1.9118589271469302e-03 2.6654097344888240e-03  4.5576004236426420e-03 -3.9545806239538340e-03 -2.7857311592430025e-03  -6.5148443236645367e-03 -6.9026898404857141e-03 -5.3857987701480285e-03  -6.2592358473804377e-03 -6.8429687272885831e-03 -5.6507901869968045e-03  6.0840579449437486e-03 -6.5656801226565030e-03 -5.9880065144610958e-03  -1.2734905905351920e-02 4.9930533923500369e-03 4.9278900584643860e-03  5.2070686736456311e-03 -6.8608084354315080e-03 -5.6979759089810407e-03  -3.1078718262231900e-03 6.8962859534856683e-03 6.1405722464512452e-03  -1.1572758444656066e-02 -4.4920480324231850e-03 -2.4378499356548515e-03  1.6470989002162768e-02 3.7775770139840742e-03 2.1091746682000705e-03  3.0973767755918865e-03 5.2665307430742048e-03 3.6707127804656531e-03  8.4260343534678841e-03 2.9405367964850807e-03 1.8005341703038042e-03  </DataArray> 
</PointData> 
</Piece>
</UnstructuredGrid>
</VTKFile>