<?xml version="1.0"?>
<VTKFile type="UnstructuredGrid"  version="0.1"  >
<UnstructuredGrid>
<Piece  NumberOfPoints="201" NumberOfCells="657">
<Points>
<DataArray  type="Float64"  NumberOfComponents="3"  format="ascii">-0.007544063098256951 0.01309643915206943 618.6690161854187  -0.001861359688088357 -0.01533616991134959 -618.6744934533775  1159.947225783328 0.03337351691391389 -588.556264645894  2206.158974729343 0.07014219706793545 -500.8850987968538  3036.17650261756 0.09053422903611331 -364.1428564222644  3568.928905988809 0.09787928852382741 -191.5869869719249  3752.476032891315 0.09775356050180747 -0.1877535463205914  3568.929640642241 0.09685836802746101 191.2110423765381  3036.174918119738 0.09582303533920794 363.7838209940472  2206.154811305343 0.08577629547056903 500.5859738788981  1159.946231864213 0.06000070852914127 588.3797697976031  1469.426697017106 -1091.443248307149 -539.063653191051  1459.950338830684 847.9056707398852 552.0024162756376  3571.775513650679 -971.4219625569798 -92.59460230645455  2572.005423625058 -1060.110303614251 411.8717628505997  3248.948024481304 982.7401153809444 260.8819771828391  3235.447561162284 982.7214401245022 -264.4934374605584  1640.852992296403 977.0128450280971 -530.2731578198934  565.3847170582487 -976.9504773131158 587.5409336907578  2555.360529798399 -976.8402648258971 -422.4182086184343  1778.698887592713 -1916.688988762826 -437.1604143788333  2642.617442736672 -1878.546165991896 -301.5198811546782  1811.929402065208 -2685.364288390003 -290.1466942156441  2552.910159696552 -2520.104347080117 -143.6664319651796  1601.815464801523 -3196.975763907102 -122.6527685373199  2280.820070209919 -2869.073983358673 28.66100087903367  1197.974405494699 -3415.602787709124 52.88994491356158  1737.773602572266 -2967.439682806389 206.7950686020038  625.9332442059352 -3325.258197178276 219.8145852254379  1112.164986885424 -2712.500436510421 364.7096595166076  -43.30373424890217 -2913.712679770221 365.3319434508656  2665.081404153243 -2331.140127919423 174.603054738499  2555.43202462238 977.0084510752591 422.1019105078928  2589.067449182049 1891.111906378542 311.5291002210244  3135.207708657223 1812.101192355157 141.4687327149304  416.0293248731991 -2165.08892348163 489.5234145116376  1523.658132494242 -1898.53434929336 461.7067278799889  1778.652732096479 1807.510918326533 450.3321546264  1713.720795532877 2644.008988974225 316.3362633688378  3578.616868409366 -947.7468833323134 91.05953765116635  3155.124864102307 -1958.5951018758 9.29242908685821  3256.085714357753 -983.4248915338526 -258.6736392104642  565.4558982396841 976.9971419774521 -587.6200767299226  2530.001425562157 952.4950244222343 -426.7466911124052  2569.252497380835 1880.930237041022 -315.4840725674909  777.3319906431227 -3226.071791699603 -252.2000295407279  -543.9852712665254 -3364.796473491875 208.0294046760964  758.8261994751234 -1965.985294222288 -506.0854255535741  3113.78811209968 1833.708356584328 -144.2444839516572  2328.516455020597 2648.96565997862 -173.2446583957519  1653.511890090033 2578.152974033395 -336.7709070729571  1305.374145544592 3210.590615578982 -186.4469969932053  576.7870685808959 3014.855621169517 -327.2972800696036  168.8912341255737 3475.769569927176 -168.7866016043883  -591.0979537432482 3101.887500777834 -301.8841012999238  -975.3445292702845 3413.542753561979 -126.7805727978084  -1719.066555523864 2915.366201866758 -231.0817800190319  -187.5267129013992 3615.074545794202 13.63504498427081  -1198.64084501889 -2801.041917009678 336.931017650955  -1655.500489688984 -3097.471933217337 165.9150029510609  -2018.338289969309 3029.574120152444 -61.04526612921662  -2666.252530026992 2369.838500750607 -158.2363772637806  -2840.031898215645 2364.548320281809 15.87409011235185  -3331.572185218463 1560.061835799185 -98.81725003661026  -3377.237679129622 1480.802207706268 94.30450487266805  -2959.879075465317 1478.70639902282 -283.3545772172611  -2731.18783692406 2188.087591501908 202.1809858745107  -3524.695055256947 646.6777060830353 -180.8775642147526  -3120.096676847969 1217.331817921831 274.8980719290436  -3000.557439386248 415.1282144350233 -364.5930054855046  -3369.258202475747 -469.8438742993984 -260.7456950972028  -2321.215058035275 1835.101628373023 373.2043767676204  -518.519669442657 -1500.225252304204 555.4033776142682  -2261.00082601945 -2395.503376100254 274.9493439444817  -2696.442200010175 -636.4577400506762 -416.9667603400826  -2912.943187736969 -1493.635216555032 -296.108615866967  -3605.583239645212 410.3721199684941 157.0623025129632  -1254.531379404185 2414.580642924747 -410.3882346636886  -2567.580146177123 783.5882140023665 431.9522801392268  807.2178206483479 2439.949646611522 439.3644120362017  -3474.020089003614 -1223.55701742542 -105.5545300836002  -2184.760001681357 254.0940948399003 -501.0560525590195  -1702.070096320101 1396.401890865723 498.5568573025792  -2099.333365629665 -1606.850528109561 -434.5236707412358  -2197.987851167551 -2392.317442353416 -292.1814286452926  -1852.235097198836 2693.781792978952 280.7236852812367  -945.7941441769864 -3495.661955937753 37.76605651043129  -1792.666947206052 235.0762345478214 542.5441205836798  -2648.602905305575 -339.7652187684282 434.6762678026332  -1268.823745582808 -2399.238776541549 -415.4290486967614  -1272.908474761967 -3058.459711545902 -258.2619282374258  -1093.460577639707 -1519.395746732077 -533.2359552100183  1902.622249052863 3118.814828304045 -15.68415959651883  -2558.711990020254 -2569.366831879285 108.3465890892386  -3080.967462722836 -1735.323710337705 191.1869135996335  672.1178215564253 3141.209706812876 289.2931193638863  -242.5323473525558 2833.113996789488 385.4578712686178  -83.98702150200954 2134.911415971819 501.4265751671692  -1016.793005119446 902.017992315696 576.2176764743261  -1695.572518263476 -1959.158146564697 437.7122224330341  885.0258141831906 2385.380341716461 -440.4465824756305  -2103.328571361367 -2892.288012327454 -136.8627572708165  -277.8779510870017 1829.982022426935 -530.4591133758745  -615.9188837916581 784.636995096866 -594.6801956913711  -417.4601806707407 3381.595181262982 212.3414110013525  -793.0954805583588 -555.4144633817127 596.8091457628968  -271.2692549990514 -2966.73103394559 -354.1461800571568  -1713.493568879514 -892.5600447935626 528.4536085272033  -2641.22550972182 -1436.828692829017 363.993901854278  -3287.98166402707 -690.656586581778 273.8906032400874  -3597.313511255017 -896.5556871471255 86.55551166929665  -3736.333606640999 -116.6998058146801 -53.69287843362529  -1441.487015699543 1554.763725050072 -504.5199933613241  -2186.125862887359 1719.676872235091 -406.9535504973645  -319.2088194906831 -3407.329788020529 -204.7268865519136  -127.5871340398938 2674.964539789825 -414.6407715267453  1496.414063388819 3182.716875928087 163.584155438617  3234.312474149157 -939.9680286445911 268.990077338034  187.512276003394 -1025.319118406378 -593.528240670203  593.0344816745562 -3531.005021053638 -97.5580018115508  -1142.768274988341 2312.587252786708 439.2499969362802  3587.100159691284 910.9782833177595 -93.41665848482489  2397.555970325367 2624.908486261943 160.7935524261638  2828.295832205069 2379.029346738953 -5.795574362026573  -2865.034157779889 -2151.650584709254 -157.7731263604995  -1243.145980275048 3404.099447345044 50.33631811957098  -2085.731214222887 2935.691925667487 115.1753921348109  -203.6275877336041 -2213.492138599569 -490.4227925752497  -874.7180301585483 -404.0819708535082 -598.0208216957268  -1843.912061038996 -648.4978218356154 -527.9559920214364  866.9517614195898 3517.482004523109 -29.5235620949206  101.4829122417527 -3596.496277702845 66.5832524603433  2072.178898671116 -2287.345686546074 335.1187313456884  3593.439461377725 922.6325477382898 83.61400050460527  1641.701354212278 -969.8569471271538 530.3537661964049  -3173.849512100745 -1929.519985110667 14.29379288912203  -671.8568902525453 -2388.679690398069 449.9801649378603  1828.664669088587 1752.330922047263 -448.7431742345694  -3215.338341592255 288.4802763822788 315.8820197363207  842.4014121553168 -2695.869701569281 -391.2024930133729  919.4201140430654 1738.655458418074 522.65546302198  534.6417570049366 3501.721006099699 132.2564032747431  -2333.875977321022 2269.443936807034 -288.9581927737307  3138.187090777554 -1744.89791057551 -163.1063314420392  -57.41153215282705 941.7288677768667 598.1904970072571  2842.533987979192 -1698.264826345225 279.9022952011475  -3643.316054618865 862.7076708068136 -13.38698646009833  -1939.628498340418 -3099.031910004314 4.177712188216097  -1184.560847604218 -3382.462623536323 -104.6256440930901  3366.437372341467 1599.35770236034 -3.526423031168429  -837.7000993720834 1783.705285134242 522.0931023779335  1042.545379399892 1619.87185887198 -524.8481332455392  -1265.472670107842 265.9264515356932 -580.4372092655551  -1371.868443514741 3167.387149846495 198.7913794909288  3191.648606435214 -1622.876344082096 169.1423335803006  -255.691291035462 -3593.520712196037 -64.35724420303096  -2406.932992229758 941.1232415463015 -446.0101728451047  -1645.104553023524 799.8395285580575 -538.4019110124467  -1049.306759478876 2912.484273377502 326.5638020840053  -2638.610947737315 -2566.282453091506 -36.06380147866128  0.0006245589772236907 0.0008760964929199584 1.089534603243682e-05  -1196.943335604881 -1416.727027891553 16.02902466266038  1809.880040517216 552.5489545379555 -2.48850235136182  -720.9617169900122 1489.060519818598 137.6515826031812  1349.005221683235 -1055.54209159112 123.0309658714258  -878.942846950445 154.4756851233339 -275.2866681619949  -1861.454076679592 281.1212829125197 0.5891407667419695  355.6964067169262 1684.352736934212 -116.9680264023197  1257.253228118812 -829.9913793360279 -186.1862314435369  -978.020678058472 -157.7449513330976 267.1393306562323  937.8497954713741 1253.332012520219 216.4945729645208  -346.3520008493268 -1430.264860591084 -235.2790261296222  309.6666618211998 -2065.567223191217 -0.5705209333039394  746.7358544314
[...]
<PointData  Vectors="Velocity"> 
<DataArray  type="Float64"  Name="Velocity"  NumberOfComponents="3" format="ascii">-3.4185184365561356e-10 6.1066638809166969e-10 -4.0330897456066847e-08  -8.1896552025001815e-11 -7.1147395568642607e-10 4.0084282421237631e-08  5.1088630686249024e-08 1.4880114007963832e-09 3.0835727857834055e-08  8.8520797882710326e-08 3.1520915412367453e-09 1.5912460417098705e-08  1.0646656757957033e-07 4.0775643313470717e-09 1.2752469441339480e-09  1.1115674845557158e-07 4.4117710384119655e-09 -5.8903825521274577e-09  1.1156438877876337e-07 4.4076012224399169e-09 -8.4516451627773882e-09  1.1118997168261680e-07 4.3687603024141471e-09 -1.1032940394383190e-08  1.0639528853126437e-07 4.3253009389411410e-09 -1.7438043636184868e-08  8.8332439543487101e-08 3.8785415221083455e-09 -2.9379255261931773e-08  5.1041165344172743e-08 2.7226958852796324e-09 -3.8782142569154175e-08  5.9246644614061472e-08 -1.5257357276030475e-08 -1.8557958483465429e-08  6.3176719277011442e-08 1.6642793547698206e-08 -1.5346969064359540e-09  1.0553606320281664e-07 -6.1249976938610877e-09 -3.3715569029548871e-08  9.2216451794125792e-08 -1.0168954881267672e-08 -5.5762683964549441e-08  1.0633016353649379e-07 1.6098683084218070e-08 1.6566039932298205e-08  1.0621783765686556e-07 1.5761501007682522e-08 2.5391083913066037e-08  6.8974072355017028e-08 1.7625540076497545e-08 5.8026437281067445e-08  2.3103877892822933e-08 -1.4809477300937201e-08 -7.6542096487217377e-08  9.2631085646552300e-08 -9.8625648362955791e-09 -2.5562504542654979e-08  6.2776984237194175e-08 -2.3334615075725596e-08 -5.4295626341093655e-08  8.4441922459531326e-08 -1.8231340556522049e-08 -5.6821499096436706e-08  5.4236174493509638e-08 -2.6452688466318900e-08 -7.8946074585489861e-08  7.2034330966291614e-08 -2.1018963575111266e-08 -7.3941469151072847e-08  4.2057154283756785e-08 -2.6433402464326652e-08 -9.0677826769795789e-08  6.1168636993156017e-08 -2.2697480664013915e-08 -8.3526861583383754e-08  2.9206250762516655e-08 -2.7306600475869475e-08 -9.7579328789947296e-08  4.8195931738599943e-08 -2.6079143208687975e-08 -9.3510330425236388e-08  1.4601098569229567e-08 -3.0276626593626782e-08 -1.0335958000742837e-07  3.3942964054962092e-08 -2.9632001359871362e-08 -1.0202095640313687e-07  -5.3183800523334149e-09 -3.3290212212809044e-08 -1.0585525291709653e-07  7.7282625475283958e-08 -1.9851543481901116e-08 -7.5001851460084713e-08  9.5853584150370310e-08 1.7446261440179653e-08 1.1323819453524189e-08  8.8509965296259655e-08 2.6071630444353300e-08 4.4098449819943282e-08  9.6605389784539285e-08 2.3018049203356908e-08 4.1015035537932078e-08  1.2720549527328978e-08 -2.9802816994661181e-08 -1.0314753705544124e-07  5.5139775923546294e-08 -2.3579946971948998e-08 -9.0915272835980595e-08  6.9170355239343156e-08 2.7991782981288702e-08 4.0216648409812747e-08  5.9247418283479106e-08 3.2299392352833820e-08 6.8932991076950766e-08  1.0588690100454670e-07 -5.8790227806267839e-09 -3.4849058757820845e-08  8.9765300321157981e-08 -1.5406522449503100e-08 -6.0415903527549559e-08  1.0396520255347382e-07 -7.4619499124525141e-09 -3.2309677629191938e-08  2.6316604510473792e-08 1.6913314347502729e-08 7.2979009726715094e-08  9.5187128822210943e-08 1.6790678231774993e-08 3.9749241422639022e-08  8.7795110913297091e-08 2.5695349133602244e-08 5.8395658484160604e-08  1.9702237702893191e-08 -3.0821197606857941e-08 -9.1934330290266267e-08  -2.0601667895643339e-08 -3.2376629879671784e-08 -1.0084069316877165e-07  2.7202187092481182e-08 -2.7998147548070823e-08 -5.0240693919381066e-08  9.6113441163224354e-08 2.3362087185128026e-08 4.5489121102962076e-08  7.2635399770578304e-08 2.9223750553791634e-08 7.1693906885866453e-08  5.8372519020588643e-08 3.1628149721056710e-08 8.5745981034149367e-08  4.2301130554040973e-08 3.1792937054978952e-08 9.2172205123911062e-08  2.2652281054924439e-08 3.3296973038941200e-08 1.0201586115502518e-07  8.6165250091664825e-09 3.1023463871190331e-08 1.0177544548863914e-07  -1.5067082125971274e-08 3.1405780288948342e-08 1.0511829549621481e-07  -2.4033362171018328e-08 2.8232218325906853e-08 9.9906272427748702e-08  -4.9012607185063273e-08 2.6615245393595967e-08 9.4104504606629785e-08  -1.5121302537777520e-09 2.9334881944868773e-08 9.9566369785987119e-08  -4.3417862759521382e-08 -3.3394424386498610e-08 -9.4910326239599613e-08  -5.2269946764902985e-08 -3.1739868665159154e-08 -8.6911145055503422e-08  -5.4007508216802720e-08 2.4535929061463188e-08 8.8518654901902248e-08  -7.6375488722637957e-08 2.0546514331888108e-08 7.5245643746411137e-08  -7.8697475489944022e-08 1.9279380571497800e-08 7.0407363711747197e-08  -9.7151798077654926e-08 1.1990852100150420e-08 5.1244569952409800e-08  -9.8457264711030278e-08 1.1268895167411307e-08 4.6801663134686239e-08  -9.4020142426241038e-08 1.3233379389298732e-08 5.7384788711812779e-08  -8.0597138607137177e-08 1.9583728557732313e-08 6.5830759656247261e-08  -1.0766077794199483e-07 3.1704827699469700e-09 2.8920139959278347e-08  -9.9446823549117653e-08 1.0333861469694565e-08 3.8450013193204461e-08  -1.0418191610870347e-07 1.3984320815097248e-09 3.0876706825820362e-08  -1.0898985222476758e-07 -1.0218944022882875e-08 -1.2635802316199816e-09  -7.8405477954732925e-08 1.9898576408427074e-08 5.4228389034942467e-08  -2.4349152829247784e-08 -2.4289081583213980e-08 -8.7691794366442450e-08  -7.5422887020928556e-08 -2.9847264748660897e-08 -7.2243339270908181e-08  -9.9710894317639312e-08 -1.3018247518109074e-08 -1.0749869389080095e-10  -9.7578776767824260e-08 -2.2144470015393584e-08 -3.1762726354382806e-08  -1.0946080468927309e-07 5.4580525624491029e-10 1.8350428272411000e-08  -4.1343848415857808e-08 2.8075676723720129e-08 9.9011331787099406e-08  -9.4294643694615192e-08 7.5256503612688611e-09 1.8991979016758572e-08  3.3130112035858010e-08 3.3497525663938237e-08 6.4572892648308652e-08  -1.0491139652374744e-07 -1.7607077098580012e-08 -2.4631300428701560e-08  -8.6699647284187434e-08 1.2950032884501178e-10 3.8107351453623341e-08  -6.5170841746753207e-08 1.8655721506716300e-08 3.3523189154136881e-08  -7.9796432418833004e-08 -2.5690306878415007e-08 -3.3496013324376189e-08  -7.4240015163239008e-08 -3.0328861720227991e-08 -6.0099153075543123e-08  -5.5284528205257560e-08 2.6764278057066813e-08 7.9380850035553189e-08  -3.0420189321170119e-08 -3.1069417183979787e-08 -9.4413754783924991e-08  -7.4656846499847723e-08 1.3197824687629001e-09 -1.3586677229456852e-08  -9.9413203917374626e-08 -8.4322042646346883e-09 -1.9049023389904537e-08  -4.8819257665198354e-08 -3.3086043871795763e-08 -6.2177499010515410e-08  -4.3195529386010586e-08 -3.3400681721682470e-08 -8.2265465420434579e-08  -4.7399075759520137e-08 -2.6035687893439098e-08 -2.7149713793949349e-08  5.7707659066014363e-08 3.0067269030083821e-08 8.0745689323473383e-08  -7.8271188764262509e-08 -2.8830424446824706e-08 -6.6722801841532554e-08  -9.6753820498590145e-08 -2.3059312394172375e-08 -4.4563258778613282e-08  2.4990235329268745e-08 3.3739203457651210e-08 8.6391510148049348e-08  -5.0531807121089410e-09 3.3531825228489215e-08 8.0243155332662653e-08  -2.8520235675416677e-10 3.0973056170351064e-08 5.4689979960395111e-08  -4.2626485638152769e-08 1.4014847593343904e-08 6.1538556795017898e-09  -6.5352772803509903e-08 -2.9026300829000861e-08 -7.8986892457635381e-08  3.5858643781770613e-08 3.2468254069857909e-08 9.7388789033707506e-08  -6.5072078972779905e-08 -3.1111710360406498e-08 -7.4228321211251216e-08  -8.3732128337601623e-09 2.6772874332729782e-08 9.7958955278861913e-08  -2.5983741613327825e-08 1.1646839550387176e-08 7.0074619884714496e-08  -8.6995297369728516e-09 3.1123853573157342e-08 9.4734932377751772e-08  -3.6140691357383122e-08 -1.0710514575197401e-08 -5.7032094309439778e-08  -1.2914921961834196e-08 -3.4507152430989503e-08 -8.3436564911084958e-08  -7.1465148575949376e-08 -1.6328937952510367e-08 -5.4365757265368630e-08  -9.3839863675403867e-08 -2.2259250719596554e-08 -4.9300061869622900e-08  -1.0753864013319371e-07 -1.2616652245154610e-08 -1.7054365576469331e-08  -1.0780030322087919e-07 -1.4159475541559343e-08 -1.6994460420302603e-08  -1.1090526186688186e-07 -5.6615904483426773e-09 5.6889860730720974e-09  -5.5152804598545173e-08 2.0334588681633129e-08 8.5170493697550693e-08  -7.6233324786071327e-08 1.8965870257212623e-08 7.6793416040881706e-08  -1.3947177461559748e-08 -3.2480238496211601e-08 -9.3786850337560434e-08  -9.6351892973391522e-10 3.2498441468782062e-08 1.0564740152971024e-07  4.7448084191962881e-08 3.1528241660756456e-08 8.3282971707868233e-08  1.0380821247838646e-07 -6.7108908077346255e-09 -4.0701291264759661e-08  6.2484184821232523e-09 -1.7649343159805582e-08 -5.7568369884494328e-09  1.2552563692068751e-08 -2.9291574647637992e-08 -9.7901140027345125e-08  -3.8639724961700375e-08 2.9250542101301089e-08 6.5754693195553723e-08  1.0861678703444882e-07 1.4277899806008016e-08 1.7414957625793782e-08  7.4352505150856034e-08 2.9146048054907138e-08 6.5469015794848495e-08  8.4634326324134925e-08 2.6574178219560728e-08 5.7836539381967250e-08  -8.8771230566531245e-08 -2.6366555709968578e-08 -5.1275691491523101e-08  -3.1045721914851427e-08 2.7418142628944191e-08 9.5634138433769469e-08  -5.6608593069887802e-08 2.4477465408293396e-08 8.4374029778978758e-08  -1.1121206625318464e-08 -3.2376663959544811e-08 -5.7159820878118142e-08  -3.9475453218077093e-08 -9.0086325543886176e-09 2.2899048987437540e-08  -7.6771462045251744e-08 -1.3476329874857947e-08 7.4526576580488246e-09  2.7873796881320517e-08 3.0830652363982970e-08 9.5189744732630658e-08  -1.6815933617024161e-09 -2.9896224725066745e-08 -1.0066743830575905e-07  6.5788265828848885e-08 -2.3444952381449231e-08 -8.6196152377827856e-08  1.0854465275926597e-07 1.4457571112701183e-08 1.6146358646943416e-08  6.5610992088292096e-08 -1.1939407703038505e-08 -6.7870675484546374e-08  -9.5282761268685085e-08 -2.3736173980346312e-08 -4.5138482579587110e-08  -2.8438559287872253e-08 -3.2611263621352322e-08 -1.0001801438750820e-07  7.0943431211165331e-08 2.6637341768084823e-08 7.3010512553536542e-08  -1.0735913760607726e-07 -4.0383198732356465e-10 1.0402227294426832e-08  2.5498552000779520e-08 -3.1677814996091318e-08 -7.8001738159761096e-08  3.9836729713706670e-08 2.8443609231959841e-08 3.6383671961316705e-08  1.8922240511191669e-08 3.1245324718075976e-08 9.4554591745344829e-08  -7.2388767200484839e-08 2.2116135163208854e-08 8.1170219624625526e-08  9.3108724120205458e-08 -1.4297902509721055e-08 -5.3783811251538480e-08  -1.2046846111693826e-09 1.6572601171994501e-08 9.4302014919763704e-10  8.9831834429771891e-08 -1.5726479242448562e-08 -6.4062318373977590e-08  -1.0632237584152602e-07 5.0917371521551818e-09 3.1728872808836325e-08  -5.8479192819774857e-08 -3.1006921221517445e-08 -8.0883289831234843e-08  -3.7535586897339657e-08 -3.1638078150094199e-08 -8.9600389901716855e-08  1.0127502173771426e-07 2.0671507126776830e-08 3.5293789221830022e-08  -3.1218642293297481e-08 2.6002954680670075e-08 4.3282714538379031e-08  4.5001004371336658e-08 2.5745417093599252e-08 8.3724756948688421e-08  -5.4617705302438641e-08 1.9337544704885553e-09 4.8510520550847273e-08  -3.7212052538880038e-08 2.8333877973308481e-08 9.0419656339982569e-08  9.5167773458077568e-08 -1.3138942466855229e-08 -5.5479231459556343e-08  -1.1795154888483274e-08 -3.0728471612977558e-08 -9.7707980270628017e-08  -8.9280926217988350e-08 9.5258614030718320e-09 5.6316077741751835e-08  -6.6701410539925867e-08 9.4969932080765221e-09 6.2942563643165801e-08  -3.0737937069577738e-08 3.0596975019324515e-08 8.4193119824317469e-08  -7.9391695044217270e-08 -2.8379877839745215e-08 -6.3514116181695998e-08  2.8038069582358759e-11 3.9371493928202880e-11 4.2892905323826794e-13  -5.2743011140004823e-08 -2.5402905940097842e-08 -5.0992699978954284e-08  7.7654298374001969e-08 1.2343921692874426e-08 1.5473545090548911e-08  -2.8722503509560528e-08 2.3760540340983664e-08 5.2155266221839720e-08  5.6190171371710424e-08 -1.5353172093897851e-08 -5.1592055279800695e-08  -4.0152517986308818e-08 8.8459946545525169e-10 2.6478516757243878e-08  -7.8690020459584862e-08 1.5998630553754508e-09 1.6246779486118914e-08  1.7962991485292159e-08 2.8143195378234498e-08 6.9925860964578855e-08  5.3881610884949603e-08 -1.2358652311462159e-08 -2.5928994982638364e-08  -4.4688537914536112e-08 -4.1718963500435925e-09 -1.9470654070211373e-08  4.2773495398214327e-08 2.3031996680682800e-08 3.3633286420268565e-08  -1.7226089829559720e-08 -2.5197611508042719e-08 -4.1426065960789698e-08  9.3589596596925062e-09 -3.1285330412714631e-08 -7.7265079263920239e-08  3.4738822747805658e-08 1.0756580215441333e-08 3.8723066472183192e-08  -1.5026662857873713e-08 -2.6853113022149559e-08 -7.4106646429639955e-08  2.9738271340799516e-08 -1.8337728293709423e-09 -3.1117512221707100e-08  -5.0017473431767659e-08 2.2736570905557712e-08 6.8197466609212984e-08  -7.8959496346737647e-08 -1.5335145399730999e-08 -1.3741390337682341e-08  8.0380651273636033e-08 5.0161433170568069e-09 -1.3678909006508152e-08  -1.0073111397168921e-08 1.7201265184772017e-08 1.8699128106327770e-08  1.8564865977571651e-08 3.3342550994876875e-08 7.4374056343787002e-08  6.8033869484636042e-08 2.3025523834798245e-08 5.2214612956866264e-08  6.5004103407078973e-08 2.9427907772655167e-08 5.9057804499584806e-08  -7.5279403926462577e-08 1.0775023155108228e-08 2.6497233090764319e-08  8.9351804792968868e-08 -7.1041853461278449e-09 -2.9744079062036505e-08  -1.7195678839929938e-08 2.2926316692854989e-08 7.5383252886296705e-08  -8.8727841507748769e-08 -1.5178078943091450e-08 -2.6710992129334649e-08  8.8172323458323702e-08 5.2679727774347776e-09 7.5867247209632055e-09  5.8924882817121589e-08 -2.3996842666415231e-08 -6.6168842874852220e-08  -8.2148641599817009e-08 7.3147919731022449e-09 4.0432906251554325e-08  1.9927115272003661e-08 -1.2325731472616584e-08 -6.9939422925341865e-09  -3.1748023268029181e-08 -3.4046217987056843e-08 -7.3767466180393637e-08  -3.0376754029976617e-08 -3.4378974680131747e-08 -8.5265146172106788e-08  3.0010418873601475e-08 -2.9377012291130683e-08 -8.7062759042178114e-08  -6.7444047891576243e-08 2.2786517566609838e-08 6.4008418611493235e-08  2.5359934013790870e-08 -2.9864198389431013e-08 -6.7604619507002287e-08  -1.6035407763289551e-08 3.2745548275574714e-08 8.7674689631782466e-08  -5.4726752492121515e-08 -1.7983001974073486e-08 -1.2496947706966423e-08  8.5225532135366448e-08 2.1154119606902164e-08 2.8839514696987502e-08  1.3704302649385300e-08 1.9937196992981450e-08 3.9831258787482829e-08  3.7408925730205743e-08 1.1964088004581947e-08 2.7652172596138668e-08  </DataArray> 
</PointData> 
</Piece>
</UnstructuredGrid>
</VTKFile>