<?xml version="1.0"?>
<VTKFile type="UnstructuredGrid"  version="0.1"  >
<UnstructuredGrid>
<Piece  NumberOfPoints="201" NumberOfCells="657">
<Points>
<DataArray  type="Float64"  NumberOfComponents="3"  format="ascii">0.4239802760564556 -0.3546077756559658 7347.408988239491  -0.06259535086412446 0.06171884635082723 -7347.405783229091  2362.715010130186 0.04830135662944707 -6987.677147285791  4493.700289680533 -0.3569668965772582 -5944.677773875629  6185.165541567603 -0.05638941606885914 -4318.322442800373  7271.804781874835 -0.06937373390328591 -2270.446994899498  7646.698259597577 0.1169613258481743 0.7770237867750519  7272.089814921496 -0.235957201997496 2271.269498988401  6186.079607004481 0.02579710198583395 4318.982936703616  4494.742830820592 0.1015468188363314 5944.070913031894  2362.543403003656 0.1672479937074237 6987.427290039827  2996.252669784341 -368.2736972513136 -6393.775080332272  2976.036792570958 286.2621021318262 6550.69301009105  7283.722976464283 -328.4010095034196 -1089.925162424423  5246.216446900525 -357.6765615024973 4903.522589967423  6625.206870141883 332.0730169885468 3092.406667269521  6597.566055786694 332.068189320671 -3145.238748031208  3344.795828176063 329.6883834757716 -6308.627342240847  1152.668368172817 -329.8083222688932 6992.55187654082  5210.265078918603 -329.728802329556 -5006.226222981532  3634.859300512859 -641.2367491444634 -5185.138871153506  5400.86758869615 -628.6294842457841 -3570.827740809953  3715.68964086862 -886.8678571235821 -3440.248454856307  5232.026439679649 -835.4504030502203 -1692.730181805986  3294.984493486368 -1043.205706690052 -1442.894367284657  4682.963671508754 -944.1715087671978 364.6929106579347  2467.552569913265 -1108.5620730003 659.28020900672  3570.016093847526 -974.1069356819372 2495.516164278707  1288.33655852367 -1081.315200385799 2658.637541947886  2281.084614145812 -895.0849378286041 4378.079482942512  -88.30750072874115 -957.1236928917862 4391.424901529401  5457.335648503187 -775.4188893413582 2100.278864474054  5211.178293064393 329.8977841222422 5006.513387839595  5292.308735115575 632.9672053345071 3693.798783497214  6406.79066181669 607.5327257707486 1671.550171692377  850.4993840821439 -721.3887088871763 5854.611985890421  3114.782299142154 -634.6881474726164 5515.593024765963  3633.665596354622 605.2783064358151 5343.791326201412  3513.895195513706 873.7053395441832 3755.275666057765  7297.965235482249 -320.4193973817841 1089.941322046348  6451.699317761006 -655.3263554167423 126.7060819738671  6640.486553408932 -332.4452031867879 -3061.106600831853  1153.031257410334 329.5397632745965 -6992.861816258517  5157.941869753538 321.3643427467223 -5074.745458212391  5250.485562111834 629.7491221221522 -3767.142711497715  1599.037168041685 -1051.664135450054 -2992.319228158458  -1119.921029055126 -1093.105599235498 2517.343417757734  1551.620689431644 -656.3795256883219 -6007.601273426503  6363.762926154644 614.6751618921471 -1726.985405039879  4774.895460197884 875.5630270163331 -2085.080258683138  3388.875234985344 853.298724137841 -4038.390906855843  2684.814686986855 1047.231198558752 -2254.448697636491  1184.479476725932 987.9547709120909 -3937.516043789982  347.5611809266405 1126.090146731608 -2049.106134851325  -1215.343452071248 1013.713027061622 -3636.820857254701  -2009.058346258261 1107.974007722212 -1544.969156120322  -3530.271460819431 957.9645960870048 -2785.16935826007  -386.7010436583412 1166.455951662211 137.31791520526  -2459.260386203251 -922.6545344989573 4046.852780271111  -3402.720329443978 -1013.942535218395 2006.401687998065  -4147.69792591485 993.3513850485064 -753.0189152659483  -5460.023349782088 787.7188465667768 -1905.471836037538  -5815.754680203082 786.3649885607019 170.2658842282724  -6802.665781114634 524.7408587077489 -1187.96427136991  -6894.081765008358 498.3872414585509 1107.767238800042  -6041.884030209486 497.903032652351 -3381.872551253975  -5588.537719977329 729.8220576290728 2389.836544989635  -7183.971738859509 218.8928802223289 -2154.342772009978  -6364.757648221835 410.8583889807837 3254.199962410203  -6113.412068115857 140.546762394721 -4333.352551884538  -6865.357898169252 -159.1883242779454 -3092.958828416143  -4743.455930356021 614.491435709994 4424.118033503376  -1058.304647214245 -503.9532542903472 6621.124801310577  -4630.487334921909 -795.3059315933531 3295.640984497177  -5494.822252876226 -215.3280666256211 -4947.458011574627  -5946.470277637321 -502.4790943326782 -3509.851367765155  -7346.933706062102 139.2722641042704 1858.537346704645  -2569.846009155543 801.0283915683651 -4916.809237351441  -5233.458821394916 264.6326229102841 5120.21669566506  1653.025614139931 809.373653320523 5218.431924712523  -7087.391543525446 -412.5567045462989 -1247.324318292908  -4451.081729756301 86.25709047321172 -5953.784327337557  -3473.003986955462 469.611408681791 5913.258258443083  -4286.578601088079 -539.6109774222954 -5155.616295838893  -4501.921446005412 -794.2694821892744 -3465.885930265505  -3798.467986997981 889.4055746000531 3327.943730244877  -1948.998983368136 -1131.768951567082 477.238141698566  -3651.687480098533 79.74476897808661 6438.765070086363  -5396.545288800908 -115.1218496717358 5160.579593784426  -2598.548143499275 -795.8917872940575 -4934.21715569155  -2615.728704927524 -1001.73877828289 -3064.644892366235  -2233.226554408762 -510.3204880638904 -6328.629337429332  3911.864651029737 1019.543681945053 -208.997595501133  -5245.06946146184 -850.3944916700412 1309.276449557085  -6293.710465512295 -582.7450005940577 2284.77758377574  1381.689974121976 1026.472114583366 3436.075222612109  -498.2195901359223 931.2963003520294 4580.947445473622  -171.9669333664968 711.8641853125338 5953.517113217235  -2073.180619973993 304.3622488928377 6835.708420434876  -3465.476588140149 -654.7022186320161 5228.357249600109  1811.880007745674 791.274062271743 -5273.59619672636  -4318.419687692057 -950.8121588759744 -1614.578622820441  -568.3224952249283 612.2832892441694 -6333.091947667535  -1256.849143128921 264.6416096597026 -7074.234700137275  -859.7027073085694 1098.197143797482 2517.452510174618  -1616.75212790659 -187.8681430431097 7094.028899230431  -557.0006400163649 -973.270320758295 -4208.368150430768  -3492.403610737382 -301.212528065613 6285.797308742597  -5390.919105936642 -483.328342086953 4336.664819538923  -6701.039578473293 -233.909488433922 3254.407288520756  -7333.832263963817 -303.0443385517277 1031.560389520868  -7612.984117251616 -39.4710515787925 -638.2717357426916  -2943.051784397486 521.9688086838486 -6018.338092491275  -4465.920402814436 576.7673448862323 -4858.84268813995  -657.3634487296796 -1106.02468005534 -2426.505797754828  -261.7124891650864 883.4627953889103 -4974.064600044987  3077.476906770485 1039.47777990061 1934.340962868288  6595.499171153207 -317.6848773275157 3204.23886635777  382.6674110502266 -345.464346487183 -7042.780893135668  1222.512979847867 -1142.287043108193 -1142.951047907472  -2339.183303844205 768.665876419308 5214.773805548479  7314.402125122122 308.1233025610657 -1113.147326748882  4916.084847241686 867.9151596669668 1900.566147815223  5792.597609760531 790.8135124080644 -84.0000582445583  -5861.916666349076 -717.728343371761 -1865.041862540449  -2560.674466446654 1105.448413571454 577.3736195391918  -4283.49175431753 964.2037692597791 1353.67707726853  -417.2916647050789 -736.9240503531852 -5823.803186953114  -1783.708107984304 -136.590489325416 -7099.207131001236  -3757.672117908348 -219.1818407226518 -6266.010956956897  1786.824149541107 1138.439893928304 -379.1012376140876  209.3683859848657 -1161.380679984332 825.2431299193825  4241.81226589441 -761.0017847393343 4013.714429101906  7327.513893744574 311.6770801329538 988.3786742171014  3347.29274325494 -327.0952162960494 6311.883486672296  -6488.01851472783 -646.056223138033 181.9993316131351  -1375.554958858233 -793.1836402980011 5387.201530256247  3734.735346796856 587.4860036322129 -5354.145456626614  -6550.803738608032 97.81714365550268 3744.14895601633  1727.640724132267 -889.4672103876001 -4646.253862066365  1877.221049406272 582.4542802839278 6203.309918298884  1101.718565468761 1133.538335323867 1559.766698338713  -4777.882529515413 755.0177661209301 -3463.087509881047  6411.833801776985 -585.6765705003947 -1924.493637920363  -117.1281176544952 317.2951701111143 7098.280151791718  5806.799608512202 -569.7962332842577 3344.500615909433  -7428.282536781094 291.738738690031 -166.8622188536462  -3987.34672661179 -1014.484401992242 71.31328496773722  -2439.391596774596 -1098.862873038636 -1228.65069029448  6875.179728594093 537.4817147803337 -50.9937506297643  -1711.603868955698 597.710792684215 6195.531318660218  2129.126884377001 543.5301507827008 -6259.556686983659  -2578.849045157884 89.91200323466923 -6897.377005416948  -2821.62370336291 1034.640876696142 2353.786780652827  6518.466030951877 -545.4738764792958 2025.175880614728  -527.1738058697882 -1160.748215287934 -745.5164976657878  -4907.635444086374 317.9344255782709 -5308.815292360381  -3353.497037001619 270.2634380118853 -6405.900354653823  -2154.59711925459 957.4265868731594 3877.549882136628  -5407.67354413972 -850.5658973802858 -413.20453546505  -0.3372711220480258 0.009112480935414152 0.2186889132348615  -2466.40764824196 -459.3808138530903 205.7418409886911  3723.876875215464 180.3081592192994 -33.84238391320635  -1486.362994294607 482.3070053272602 1635.990997676765  2777.817839875678 -343.4522179343898 1487.079464682857  -1808.297730101099 50.51238627077664 -3300.859754161941  -3829.48344214839 91.8427687441331 2.792235260259017  733.0694912754541 544.6888936545931 -1421.29959934615  2587.821262271846 -270.5525039800253 -2221.910211297004  -2012.051609265326 -51.55649475536184 3201.534162107254  1930.476311393321 407.9868829522674 2583.175544246271  -713.3098148845551 -464.849597121531 -2807.186892068295  639.1589774828687 -666.0864628112907 13.92927868944165  1535.255071368034 179.2356458380373 -3673.11790659713
[...]
<PointData  Vectors="Forcing"> 
<DataArray  type="Float64"  Name="Forcing"  NumberOfComponents="3" format="ascii">-6.5141193607785300e-06 -9.9373517269128944e-06 1.1430614104311864e-04  -5.3240256201375611e-06 -5.8301225234173043e-06 -1.1025172936833882e-04  3.9394716409091876e-05 4.7407397446990855e-06 -1.0395546613521088e-04  7.0164246337103061e-05 1.5589311013491009e-05 -8.4455580222153327e-05  1.0584385211537979e-04 -5.0353015113668321e-06 -7.2345492225396523e-05  1.0985735425055646e-04 2.5811898377200140e-05 -3.2128714343347971e-05  1.1292549359975621e-04 -8.4928198386811852e-06 3.5848824821639843e-06  1.1199263637630904e-04 -2.7315617333670442e-05 3.7028617772448660e-05  9.6572287895004910e-05 6.0776313303836060e-06 6.4411812384435578e-05  7.2088240200459083e-05 -5.2527525197536657e-07 8.9911459391519007e-05  3.7037360048222144e-05 3.3261806969966827e-05 1.0665864996733291e-04  4.9539712540340588e-05 1.2020165493078914e-04 -9.8602564101084924e-05  4.5994477370905955e-05 -1.1128906767953958e-04 9.3628259184424132e-05  1.2241092756190219e-04 9.9957662926238229e-05 -1.9968118543892983e-05  8.5979883111753455e-05 1.2330893257706489e-04 6.8968510916622399e-05  1.1083035631912355e-04 -1.0684543114056426e-04 4.5350599097090924e-05  1.0260887145383858e-04 -1.2621690783285285e-04 -4.1184048378397748e-05  5.2780853264775790e-05 -1.0995759813650162e-04 -8.8989095703943832e-05  1.8791971461415512e-05 1.0661730509646566e-04 1.0885803233321974e-04  8.1800708830817172e-05 1.3004191042479226e-04 -7.1774725162603909e-05  6.2744145045813109e-05 1.9875965308702501e-04 -8.3544312598634815e-05  8.7951350449061872e-05 2.3128326759312603e-04 -5.6433505269221556e-05  6.4599050956138624e-05 2.8397313820798003e-04 -6.1572228396451734e-05  9.2685774966968728e-05 2.3865582650035844e-04 -3.2055774506870629e-05  5.5499033059405519e-05 3.6519110068180811e-04 -2.3076081234353107e-05  8.0894591146885039e-05 3.2103041325907543e-04 3.4836522458479254e-06  3.8462760450044242e-05 3.8438580579483234e-04 9.4385336611822802e-06  6.4173287189423146e-05 2.9890421804987884e-04 4.1191130827749979e-05  2.1453118201498502e-05 3.6362005592600519e-04 4.3283912359208865e-05  4.2389022017527846e-05 2.3164253540220668e-04 8.1704064862977595e-05  -6.4587345291014778e-07 3.4341220914910144e-04 7.0146990734073437e-05  9.2895480678893889e-05 2.7881150539146529e-04 3.3015048809733634e-05  7.7900982382631199e-05 -1.3718079489049206e-04 7.1612828351209679e-05  8.9321329062931940e-05 -2.0798785361975539e-04 6.0251000177877234e-05  1.0362576470287642e-04 -1.9103778534997626e-04 2.1725501860861658e-05  1.5945475399261607e-05 2.0861843883957071e-04 9.4877679169430432e-05  5.0103528488234191e-05 2.1875175121933562e-04 8.0430981302703552e-05  5.6421785739902796e-05 -2.1430825488552975e-04 8.3958067987259700e-05  5.3252295084088265e-05 -3.0919286031809358e-04 6.1916844862202992e-05  1.0676881986668655e-04 9.4765746513065250e-05 1.4799481176936405e-05  1.0820965586827419e-04 2.1778895114167292e-04 1.0246401332239378e-06  1.0050172771183870e-04 1.0883185914009558e-04 -4.0685908509819669e-05  2.0360986133183224e-05 -1.3126805968887749e-04 -1.0325496506107897e-04  8.1278440273410099e-05 -1.0921637511960905e-04 -7.5593045527882401e-05  9.2765224658766468e-05 -1.7401637853866765e-04 -6.5390330963489290e-05  2.5899589254882865e-05 3.1048334070286454e-04 -4.8476713215823526e-05  -2.2047226497380338e-05 3.7088138599072743e-04 4.0082172307563034e-05  2.5018986443460319e-05 2.2633437042905353e-04 -9.1310114959795689e-05  1.0522088224151044e-04 -1.8791964910612840e-04 -2.5311348688569045e-05  7.6383653874679435e-05 -2.7957927543966046e-04 -3.3858929745202959e-05  5.7308403927876458e-05 -2.9773752986020206e-04 -6.4409362185824409e-05  3.7651135666763111e-05 -3.6738332477315443e-04 -3.3944775905914428e-05  2.0757036632780947e-05 -3.2708191332581939e-04 -6.0984855462678625e-05  5.4406386273010547e-06 -3.5428916345724262e-04 -3.1864285599754843e-05  -2.0148141272957072e-05 -3.5027726135004422e-04 -6.0439447848451095e-05  -3.6956454714105077e-05 -3.0304634700564136e-04 -2.8991718012470119e-05  -6.0666201939725797e-05 -3.2886768039376704e-04 -4.3126391827935129e-05  -6.7746041277493503e-06 -3.9412788135282067e-04 1.5420847631046150e-06  -4.3548451614125671e-05 2.8115102556218160e-04 6.9908240808194873e-05  -6.6122103159111517e-05 2.6368584412993213e-04 3.5327724965991877e-05  -6.8325832111580317e-05 -3.3864154355115871e-04 -1.1925631938669940e-05  -9.0177669083593679e-05 -2.5072663734402272e-04 -2.9980338432489092e-05  -1.0848405832142039e-04 -1.8636011484258244e-04 5.7170142999852814e-07  -1.0915459507460220e-04 -1.9005280888934671e-04 -1.9909732157032445e-05  -1.1240522653267526e-04 -1.6184160810111690e-04 1.5441886291386144e-05  -9.9462013813501183e-05 -1.3870168524416566e-04 -5.2825255917893373e-05  -9.4330655204475974e-05 -1.8448701584103839e-04 3.9576655987372172e-05  -1.1429504406048786e-04 -6.4350488688612044e-05 -3.1626215593188753e-05  -1.0743205878770411e-04 -1.1478605264152374e-04 5.1623632198004765e-05  -9.7079947781313999e-05 -2.3662105464051187e-05 -7.0452844844970223e-05  -1.0280884922179470e-04 4.8196833320806725e-05 -4.6921585025458890e-05  -7.0981333668978695e-05 -2.4991904566596561e-04 6.3836205801790841e-05  -1.3918573049680671e-05 1.6649598242187555e-04 1.0427617341857726e-04  -8.0376933794416551e-05 2.5767053594434532e-04 5.3153741309925735e-05  -8.3757161255550096e-05 8.0348029510205135e-05 -7.3846596253446326e-05  -9.7505849047506979e-05 1.5286361508489379e-04 -5.2017016041287656e-05  -1.1323553690574558e-04 -2.3338185480107197e-05 2.8626892033278491e-05  -4.2510595958124231e-05 -2.5139247917600836e-04 -8.0830536334982865e-05  -8.7640808361617764e-05 -9.2870155960898693e-05 8.6658773852709326e-05  2.5014681611042556e-05 -2.6029384519255156e-04 7.9791440086449903e-05  -1.0902868935640977e-04 1.3670221912631336e-04 -2.0075719549523870e-05  -6.8033755226985866e-05 -1.1358909866946590e-05 -8.9336674643580191e-05  -5.4397936177055373e-05 -1.3461230306226069e-04 9.1362879417871854e-05  -7.6590584054768372e-05 1.4796629923141208e-04 -8.2780688389580762e-05  -7.4081363703318558e-05 2.6561181201088612e-04 -4.6872845379539844e-05  -5.8755568779737504e-05 -2.8914376144860968e-04 5.4839244368667752e-05  -3.2632522213808439e-05 3.7760101566273807e-04 6.8017857946096204e-06  -5.3146336432164499e-05 -3.1205561246686072e-05 9.1882421179689770e-05  -8.6027598729884663e-05 2.4302475180610557e-05 8.0813052433551994e-05  -4.3823256039369174e-05 2.7947860372835669e-04 -7.6626678226156492e-05  -4.8495028473243405e-05 2.4073602311620353e-04 -5.7257926929513469e-05  -3.7977067364163068e-05 1.6119430163805641e-04 -9.3036989031972567e-05  6.4640023570645630e-05 -3.2195097785638668e-04 -6.7419705843007120e-06  -8.4637963469936384e-05 2.8708821555338082e-04 1.6811761470342885e-05  -1.0903009436164296e-04 1.4289366494834463e-04 3.6587321425982097e-05  2.2286113112081469e-05 -2.7979019905824382e-04 5.7270542935102393e-05  -9.4897155215429725e-06 -3.2087365156358591e-04 6.9634873539380226e-05  -3.4582078903856395e-06 -1.9417380315999149e-04 9.5609161037685844e-05  -3.4846379673060228e-05 -8.9676054512686818e-05 1.1135902503817321e-04  -5.5514503328764299e-05 2.0487665546973995e-04 7.9189751240214747e-05  2.8671531505065170e-05 -2.5941953368706534e-04 -7.9489896236522941e-05  -7.1138548113618507e-05 2.8357021536519044e-04 -2.2325120699816617e-05  -9.1767805375826316e-06 -1.5382031174593187e-04 -1.1507465178733008e-04  -2.0051068777971869e-05 -1.2172145692209529e-04 -1.0775126034846012e-04  -1.4655264337488863e-05 -3.3849746612991949e-04 4.2597527728807375e-05  -2.6318310180751500e-05 2.5784239327616684e-05 1.0358695684200126e-04  -8.6612549925184949e-06 3.3234027186093874e-04 -6.6242454015597897e-05  -4.9294182239397475e-05 9.8622117067897780e-05 8.6798095748129794e-05  -8.4913408704668882e-05 1.4073868232829234e-04 6.0947634352301384e-05  -1.1841670792911103e-04 6.2735864598431872e-05 5.5529747678687710e-05  -1.2202748670700914e-04 1.0109625861652396e-04 1.4640281570052036e-05  -1.1991337183795263e-04 2.8612048790681100e-05 -7.5243704600292077e-06  -4.8218893606998190e-05 -1.6301780870126768e-04 -9.2409094681375020e-05  -7.2437381136035233e-05 -2.1845223826055644e-04 -7.6544669388758159e-05  -1.3950564978413725e-05 3.7407631527495614e-04 -3.6995014848289110e-05  -1.6680679005698425e-06 -2.7033574365264832e-04 -7.9046827230720734e-05  5.2757994132895779e-05 -3.2323944332417057e-04 3.3408861886276781e-05  9.3356910191818053e-05 1.1235705328110856e-04 4.7305935711015935e-05  8.3877907288861174e-06 1.1901024890126374e-04 -1.0534934375798857e-04  2.1542168931926463e-05 4.1647391622235173e-04 -1.6651667850889988e-05  -3.3514000033861753e-05 -2.5429071471985460e-04 7.7372557088721281e-05  1.0781656943110784e-04 -1.0325780197255266e-04 -1.4291172976352543e-05  7.8734574762590666e-05 -2.8441755945243926e-04 2.9663111413317117e-05  1.0117981543096132e-04 -2.3939226715964681e-04 -7.0323063748678370e-06  -8.8929103761411533e-05 2.5108357287912276e-04 -2.7829095724470218e-05  -4.0913484297016125e-05 -3.4649508826057381e-04 9.8795037958953142e-06  -6.7015365955117211e-05 -3.0596587373011365e-04 2.1395000829995944e-05  -5.7899882583633560e-06 2.4007299647787016e-04 -9.1721662550239049e-05  -3.3019809877748323e-05 4.9163804041130920e-05 -1.1015849557611829e-04  -6.9985962444914999e-05 7.1626879009261139e-05 -1.1098885244402109e-04  2.9030063982818425e-05 -3.9464603902159793e-04 -5.3350564188907806e-06  -4.7207131421795684e-07 3.9520537789974712e-04 1.1306898047850620e-05  7.2470597446222258e-05 2.0852055729271405e-04 6.7758172106006459e-05  1.1290407822072015e-04 -1.1060848472755346e-04 1.5614389613800159e-05  5.3027413703897561e-05 1.0700841639294210e-04 9.3410163624437176e-05  -1.0410276701785110e-04 2.0734753481629434e-04 3.7010467325380026e-06  -2.6309061536376138e-05 2.0491579642285267e-04 9.0656276047553598e-05  6.2430770594661009e-05 -1.9485529728511066e-04 -8.4193402459579184e-05  -9.9004666470539404e-05 -2.5097515575109773e-05 5.4557802981007064e-05  3.0232516905245445e-05 2.3289720953122855e-04 -8.2223592618817763e-05  3.1344461502226188e-05 -1.8395650988674281e-04 9.3163677929491030e-05  1.8538379017564225e-05 -3.9279582253181564e-04 2.4814327377795656e-05  -7.7962156089999565e-05 -2.6988453042934147e-04 -4.8497779982147372e-05  1.0229218579756058e-04 2.0904025166079858e-04 -3.5528292092792698e-05  -6.7756301090953503e-06 -1.1039042025202624e-04 1.1002402472272888e-04  8.8707110578746886e-05 1.8930257016833865e-04 4.6496330737215837e-05  -1.1102535983995958e-04 -1.0958482872384047e-04 -1.7218675436876536e-06  -6.9694909857222361e-05 3.2904345869202203e-04 1.5979738053534975e-06  -4.1362921280118289e-05 3.4973231071816713e-04 -1.7654874565663986e-05  1.1507531744991647e-04 -1.7784588790703787e-04 -4.3653921914576823e-06  -2.9963869175723004e-05 -1.1913937951631928e-04 1.0231624410857869e-04  3.8326922913607576e-05 -2.0189597009436734e-04 -9.3279298465347664e-05  -3.2212770771229728e-05 6.3839950986053262e-06 -1.0270451872169948e-04  -4.3518641251831622e-05 -3.5150660667143679e-04 3.9701123345339989e-05  1.0313259034847472e-04 1.7300166428958817e-04 3.1731890070482499e-05  -8.0085737343756672e-06 4.0054026996289764e-04 -1.5132678926395440e-05  -7.8366168160667725e-05 -1.0321765090764039e-04 -7.9853344276023281e-05  -5.2841673409184323e-05 -8.3809223840765717e-05 -9.0190055435904120e-05  -3.2464527177058347e-05 -3.1956286098473366e-04 6.3586229945943604e-05  -8.6913476457419728e-05 3.0230421336161341e-04 -7.1487152557030837e-06  1.3926959637448387e-06 4.9121003814194436e-05 -2.4740521473632161e-06  -3.3209528592460859e-05 1.8628062889216161e-04 5.2808422748009460e-07  4.4918042710710652e-05 -6.7806764571829142e-05 -3.3592390808926290e-06  -1.7345721840173620e-05 -2.1509418823032562e-04 1.7464718845818378e-05  3.7116789577400222e-05 1.4704291759374887e-04 1.8957513214631723e-05  -2.7961589000191724e-05 -4.1828941607883868e-05 -4.0377987238191570e-05  -5.3075087451554112e-05 -4.6132874550450529e-05 -2.2554261808062870e-06  1.0028571301099033e-05 -2.5332398130758761e-04 -1.3312814090470238e-05  3.4012455331389278e-05 1.2851463293218950e-04 -3.0951913223973360e-05  -2.6753113388631664e-05 4.3168569118888718e-05 3.8221116252626909e-05  2.3772200900246155e-05 -1.9815132099438977e-04 2.5526565923246639e-05  -9.0127152784933085e-06 1.7440751465022799e-04 -4.1214271591805119e-05  9.3507158107879292e-06 2.3938028580084230e-04 1.9063271087995446e-06  1.8770332778902618e-05 -1.0171001833030887e-04 -3.6786223578043113e-05  -7.0648403935487105e-06 1.8488220551014616e-04 3.6858036210675319e-05  1.9564764854295870e-05 6.6431649351285851e-05 4.4324751404420684e-05  -3.9519542456962161e-05 -1.9464230212183568e-04 -1.9618792196762068e-05  -5.2433968751009388e-05 1.2511676714103707e-04 -3.2459539196489719e-05  5.2102928902777143e-05 8.6262282728191905e-07 2.9106810479504963e-05  -7.3378832333478257e-06 -1.5200294866378331e-04 4.8746357899679054e-05  1.0371634985350367e-05 -3.2105478837610185e-04 9.1331526487469164e-06  4.5478570120195066e-05 -2.0639564993023024e-04 -2.4738854543437445e-05  5.1081191080767204e-05 -2.5679422865045596e-04 4.4631722366708488e-06  -4.9485261072595628e-05 -1.1267791807353463e-04 2.4881581703839192e-05  5.7745829317885046e-05 1.0715095485225576e-04 -5.7085239760329142e-06  -1.4888941189861527e-05 -2.1880915834364862e-04 -4.5872935913283617e-05  -5.9144400591243589e-05 1.1505363386577725e-04 1.8025086612287832e-05  5.7413583902839912e-05 -3.0149307737903694e-05 -2.7956200137688765e-05  4.4724153946937637e-05 2.6725452139009394e-04 -9.5330335393140991e-06  -5.5474313325823306e-05 -9.2258654048276391e-05 -2.9666373252906420e-05  1.1398964356481707e-05 9.6135650132005306e-05 -5.9566691850395765e-05  -2.1228793796316165e-05 3.1856922743092006e-04 -1.2521909381354447e-05  -2.1602451759902366e-05 3.3228005971581461e-04 1.1666211801691586e-05  2.5594069628927047e-05 2.9011281720842938e-04 3.1183512921365486e-05  -5.4895290046795205e-05 -2.4740906842965157e-04 1.7411816585915748e-05  2.0929578935931620e-05 2.8053291310548608e-04 -2.5807398696461241e-05  -1.3444860087309918e-05 -3.2154268147174358e-04 -8.8233734136626314e-06  -3.4812064409439524e-05 1.2794279267347024e-04 -5.2125046645100752e-05  5.8118513775441043e-05 -1.7993440015168872e-04 2.2387434199658640e-05  6.6704460762340204e-06 -1.2847716644376843e-04 -3.8483982523355363e-06  2.3394501796483549e-05 -6.3190837793772694e-05 -7.7111077013878924e-06  </DataArray> 
</PointData> 
</Piece>
</UnstructuredGrid>
</VTKFile>