<?xml version="1.0"?>
<VTKFile type="UnstructuredGrid"  version="0.1"  >
<UnstructuredGrid>
<Piece  NumberOfPoints="201" NumberOfCells="657">
<Points>
<DataArray  type="Float64"  NumberOfComponents="3"  format="ascii">-1.844290970491304 0.3933692813721942 683.4828819943509  -0.8101217343529389 -0.3209572350173237 -684.2056998214188  1878.95910284395 0.4080500540212351 -662.2615512870517  3503.733836001791 0.161324879503162 -587.5631919749851  4709.347411432089 -0.6018619479889729 -450.7786298768826  5440.965952231146 -0.4414409476520845 -244.575882636483  5686.27991622382 -0.09592190311958977 0.3922817473596442  5441.371312930348 -0.1959726678468005 244.9619309286475  4709.323631080963 -0.429714155602568 450.8219178025411  3503.542261766275 0.45681715812929 588.0327237020462  1879.296653381767 0.2971598762209535 662.2532331185682  2350.509629650338 -1241.319903701862 -614.9384563150566  2344.744351018197 963.5522596375492 628.0583453991878  5415.878769051535 -1158.087931131814 -117.5687846500055  4015.817088121211 -1231.079255037739 497.4981644462993  4975.840133617297 1160.999991025094 327.5694662742036  4957.817707704091 1161.35897648035 -332.3824396294114  2620.10821000967 1114.119868477583 -610.2187309572848  915.7421825564996 -1099.386948089321 655.2829996117973  3995.152978348257 -1134.094390873339 -506.5567278613015  2782.762595725908 -2194.705306636426 -508.5444562260615  4057.619754064852 -2188.80952292757 -365.0711599345045  2768.996955252431 -3086.340769421387 -340.8488567392603  3858.213891217486 -2935.853400405098 -172.9770762442643  2411.629501183163 -3670.931579519157 -142.7515965702081  3429.461477850207 -3327.908071484731 37.19745467026874  1796.114938125181 -3906.313304266578 64.71386844280798  2632.359973641453 -3410.961172728983 247.728673362911  947.8141744525949 -3782.325847646554 257.1989181595754  1717.305937052714 -3087.319233453541 423.5685745509589  -66.43294339901733 -3300.510887309988 420.150168350346  4041.028066574009 -2720.821860824118 215.7841790203159  3997.157078854636 1134.670245550361 507.1096629098908  3978.638069413932 2200.853453523881 377.2058211558059  4751.14382328291 2137.2152081866 176.142948985616  657.0370290117995 -2445.551606284523 554.3351599163077  2399.436931124617 -2164.370049290655 534.3179873149041  2789.603472075313 2069.358988833721 523.4370939161086  2626.574463494103 3032.673233596397 369.9400197176562  5427.146105763801 -1129.913302360687 117.8918982312069  4766.385376932252 -2310.276149788264 13.76779785871526  4988.713466390027 -1162.657583984379 -323.5441924284856  914.5008705904889 1100.111270182101 -655.0951386321976  3960.668389902165 1104.442308323363 -512.7762952733625  3949.8674668106 2188.521259864949 -384.0335947687622  1180.349617205767 -3670.78611651553 -289.5723802477546  -825.731814954485 -3826.388083378589 243.3639883419531  1204.752545397982 -2223.005904046699 -569.5608144906299  4719.876794547989 2161.14917935348 -181.3687221347417  3523.579516356719 3073.308880942506 -211.3763583110161  2544.053675162644 2953.261586449221 -396.4603166268839  1973.077909941074 3671.974711849534 -220.9468776610544  884.9861020143239 3422.082821139304 -378.6803414451134  252.5359830065597 3951.630708295382 -198.0983312263455  -905.1949641267082 3522.737088655161 -349.9269041781815  -1469.332711673296 3896.169362524247 -150.7746147451422  -2612.636614622202 3349.531230866842 -276.0621261422781  -283.7058048918632 4113.419237560996 13.43436346138597  -1843.893174545037 -3193.717351010527 393.0255129094758  -2499.545641304351 -3559.183600382196 198.7956526337402  -3037.266991472013 3499.967079650645 -75.6665901055806  -4036.860889440911 2767.057362196402 -196.429586349958  -4279.433944213752 2772.11071097472 17.44675932321566  -5046.252335974352 1849.341179092991 -126.7634919534223  -5114.332406767617 1757.371748176135 117.5102885210916  -4538.108444168865 1735.641904159602 -352.1497840235944  -4148.507779233272 2557.455812186597 246.7599428763975  -5365.933453159766 769.7189964687751 -231.8813089688342  -4781.657510786926 1434.722021401599 341.043791668516  -4652.822943077154 487.0620796224993 -451.4421933542946  -5160.324952198485 -556.4016383026544 -329.8874041309871  -3596.740381704925 2123.269131531899 444.4201366828007  -834.4006508155339 -1691.220490885982 621.3179483764984  -3456.161294018841 -2772.720978028673 331.4516811466874  -4213.342533944155 -741.5326623545245 -505.4446811739612  -4470.534818220111 -1751.180494968004 -364.5675342166713  -5482.422449667715 489.348502503306 200.777707015477  -1953.23371967652 2750.104966395018 -475.8149472903007  -4021.605856484055 910.4065782922195 519.4554283370106  1262.80694110583 2764.922482863142 499.2861557042258  -5262.34068089163 -1455.300013998827 -134.5481801890543  -3467.40586693594 293.0740346298704 -589.1245703697812  -2697.225082977745 1594.143422879441 574.2794836740698  -3283.6766904531 -1849.643867838655 -511.8155409448408  -3364.579706482621 -2765.792030543307 -348.2051167826893  -2828.01389688151 3098.440913493486 330.2896309511684  -1418.685140140726 -3991.007251814463 46.62287291835237  -2871.736473254169 269.7336506954571 623.9430964822863  -4152.134802699778 -395.5564111179438 524.5216550263692  -1975.999490580671 -2733.262682977448 -477.7467505825501  -1936.013247512523 -3495.236656273991 -300.0047805405258  -1747.32872874255 -1720.337935080548 -602.8362183122268  2860.393907938629 3595.531782691939 -20.59871931997001  -3863.385690279823 -2993.930355041729 133.7070481607141  -4683.877193827545 -2043.656638028707 239.9440013923995  1024.879905212245 3570.4864227222 331.7391676892227  -378.1146242660197 3208.391141786848 436.9891464890079  -133.401013997822 2409.392354143992 562.0582869232896  -1641.565160882179 1019.83924491819 647.4748439066694  -2653.77243758713 -2241.687884256909 511.2929234250079  1384.907468849161 2704.924498119344 -504.7334628000058  -3173.702999051977 -3344.378216669978 -162.6810443077505  -442.6112760506842 2062.916626283453 -595.5924852907721  -999.5655292603104 884.112610042338 -662.9708460830906  -633.8146613650986 3843.637279853008 243.1021344371822  -1287.287428262243 -626.1316950233542 665.8462393086403  -417.1433100987467 -3362.235917616626 -403.0193875512629  -2733.307624747235 -1018.115393974902 609.6714886020013  -4091.211806751968 -1672.473320022335 441.7686384822439  -5041.235076153783 -816.8948847963792 345.8023318021006  -5448.823734565519 -1069.435783141155 111.5558706295605  -5660.837860646157 -139.3477340600646 -70.09011949754878  -2289.908669139864 1769.527378589729 -580.4929834538511  -3407.262640033792 1983.512430750867 -484.5482749488677  -485.2170185068852 -3872.692945065764 -234.5233669420893  -199.3371413968327 3026.367889093328 -473.6667502371181  2257.87865037053 3648.653196816062 190.7210221111242  4960.01337689168 -1111.221621601392 338.0299628852626  300.9659822793186 -1152.736741302681 -656.8892178333065  890.2621123446796 -4020.972362533189 -110.9287641859819  -1787.127681094672 2628.657473329685 501.9417705056518  5437.924908831533 1086.22575647913 -120.1689371887362  3624.959288354603 3049.479206236139 193.536136649144  4261.863143497412 2788.175736509861 -8.640018123609103  -4340.358015788806 -2521.580236410798 -193.3263815335737  -1867.174176691545 3896.303358993538 56.70444881107607  -3142.91586989127 3394.362806837913 136.0386367346797  -321.8235315413096 -2498.245000599802 -550.2873851778256  -1419.516173817733 -455.5688450629899 -668.1741355458702  -2943.426570962143 -741.1470058686519 -610.6297205065239  1298.464127588774 4012.272432679263 -37.07147164873231  149.7733716337514 -4091.862401618746 79.93518906400237  3189.380572714454 -2636.492989209715 400.6353313476599  5445.523386948174 1100.049688887586 106.9341928002918  2620.081893694383 -1106.057110914258 611.0267318293176  -4793.31303650768 -2277.834463284167 19.17569406332319  -1054.392218507769 -2704.117133120126 512.9269066776471  2869.012684249809 2007.1800729527 -524.5152870389877  -4953.621063267403 340.4971459035056 394.9775514259763  1304.957930488618 -3059.965246931846 -446.1130487461775  1463.712673480548 1966.902423187035 588.9510937526519  801.8581151555427 3986.170695471768 151.3272849984739  -3575.165212917951 2630.049278549789 -350.0918704112672  4765.296212909535 -2057.013716882157 -201.9442400759662  -93.5227644650637 1059.065155017982 661.362523768242  4356.877524098211 -1986.953225932339 345.7178744137975  -5514.668932427593 1030.501599872015 -18.45729925080027  -2913.390411929277 -3576.656257033691 6.749027270025564  -1779.914621047782 -3868.61771537403 -120.7661784938942  5089.217269874687 1897.334987425972 -5.439724421584025  -1334.15919436838 2017.860325149718 587.9031454925365  1662.881219928949 1834.214487631086 -595.6345160828866  -2045.616580060805 301.2247725336126 -656.5235008786402  -2077.217105539144 3626.332610338762 231.2725609232043  4849.924175685291 -1915.205103193559 213.6449871233404  -387.0107142282814 -4089.067591799171 -72.30282282525519  -3781.168418691593 1088.831033884282 -532.6025616557531  -2630.330298394435 911.8411451691679 -619.6389971500769  -1611.156500583504 3317.370228788964 375.927012456209  -3975.691243533801 -2995.288997289474 -42.56167770108713  -0.006217583679383101 -0.09308566909243741 -0.09735638124135948  -1917.188852453967 -1606.447920053206 18.90445479931887  2900.034864526524 631.012469165482 -2.965931152941272  -1159.978263946652 1682.069035647813 152.968276114879  2168.358096911798 -1198.35602342818 141.034651706861  -1433.567715623967 174.6309489532753 -307.7982668051498  -2984.230002206234 321.9892403313935 -0.03161660497091879  572.0696864420394 1898.478858355271 -132.210616877972  2030.275119547389 -940.9405741216475 -209.1329788329671  -1590.729832844532 -178.1658081670058 299.1565692097512  1511.694416494818 1417.121166831908 242.229863539694  -558.2245707741106 -1611.791534396985 -261.0062915983883  492.3477353208813 -2330.941207312514 1.171894768601366  1214.471948884447 618.732561310697 -341.
[...]
<PointData  Vectors="Centrifugal"> 
<DataArray  type="Float64"  Name="Centrifugal"  NumberOfComponents="3" format="ascii">-4.4136292617344147e-08 0.0000000000000000e+00 1.6543508508516196e-05  -1.9311938112577933e-08 0.0000000000000000e+00 -1.6560839872269649e-05  4.5338006770022455e-05 0.0000000000000000e+00 -1.6027194525617535e-05  8.4557940970923464e-05 0.0000000000000000e+00 -1.4214401168505211e-05  1.1367661364445207e-04 0.0000000000000000e+00 -1.0900654407178549e-05  1.3135504318114187e-04 0.0000000000000000e+00 -5.9129135014953020e-06  1.3728393055954395e-04 0.0000000000000000e+00 9.4014358300673379e-09  1.3136478206880750e-04 0.0000000000000000e+00 5.9221428620043168e-06  1.1367605255915591e-04 0.0000000000000000e+00 1.0901660057134100e-05  8.4553317687743667e-05 0.0000000000000000e+00 1.4225659734894639e-05  4.5346143763679803e-05 0.0000000000000000e+00 1.6026958237804997e-05  5.6721633933352563e-05 0.0000000000000000e+00 -1.4880087212393409e-05  5.6580926263300493e-05 0.0000000000000000e+00 1.5197925856135186e-05  1.3075358837952547e-04 0.0000000000000000e+00 -2.8423527749632172e-06  9.6928988908138745e-05 0.0000000000000000e+00 1.2033063115277786e-05  1.2012033338958277e-04 0.0000000000000000e+00 7.9203411154616698e-06  1.1968471259152701e-04 0.0000000000000000e+00 -8.0369027658180676e-06  6.3228720343335977e-05 0.0000000000000000e+00 -1.4765174146783603e-05  2.2095878051184110e-05 0.0000000000000000e+00 1.5859915691914328e-05  9.6429331986921021e-05 0.0000000000000000e+00 -1.2252462174125082e-05  6.7163216563284999e-05 0.0000000000000000e+00 -1.2303648799208359e-05  9.7948629071812807e-05 0.0000000000000000e+00 -8.8295710783455501e-06  6.6841053285338441e-05 0.0000000000000000e+00 -8.2457849677926501e-06  9.3143901389408846e-05 0.0000000000000000e+00 -4.1836355781990114e-06  5.8219528471450621e-05 0.0000000000000000e+00 -3.4534711621001657e-06  8.2794546041373894e-05 0.0000000000000000e+00 8.9965057275729319e-07  4.3360856705680902e-05 0.0000000000000000e+00 1.5656504877236861e-06  6.3546118995212871e-05 0.0000000000000000e+00 5.9929007822288830e-06  2.2879900853231061e-05 0.0000000000000000e+00 6.2233195812620635e-06  4.1450235034177021e-05 0.0000000000000000e+00 1.0248928006165439e-05  -1.6034907983655547e-06 0.0000000000000000e+00 1.0167170334824568e-05  9.7555943303302396e-05 0.0000000000000000e+00 5.2187024631015870e-06  9.6477365312882366e-05 0.0000000000000000e+00 1.2265675053775256e-05  9.6041182716181673e-05 0.0000000000000000e+00 9.1230855411405032e-06  1.1470264882818478e-04 0.0000000000000000e+00 4.2591513892578787e-06  1.5856155292282097e-05 0.0000000000000000e+00 1.3415454152248634e-05  5.7908181819958356e-05 0.0000000000000000e+00 1.2928490748044511e-05  6.7327143901962775e-05 0.0000000000000000e+00 1.2664072782654619e-05  6.3401553178489708e-05 0.0000000000000000e+00 8.9499432400663047e-06  1.3102553642856541e-04 0.0000000000000000e+00 2.8500921050511024e-06  1.1507291571185979e-04 0.0000000000000000e+00 3.3282080383151767e-07  1.2043073357953663e-04 0.0000000000000000e+00 -7.8232014022578026e-06  2.2066254714596978e-05 0.0000000000000000e+00 -1.5855421953629274e-05  9.5595982378595946e-05 0.0000000000000000e+00 -1.2403020401196448e-05  9.5346376480281566e-05 0.0000000000000000e+00 -9.2883939986505979e-06  2.8492726069616690e-05 0.0000000000000000e+00 -7.0066549693395524e-06  -1.9932370434748893e-05 0.0000000000000000e+00 5.8886238718831374e-06  2.9073252523120962e-05 0.0000000000000000e+00 -1.3783807433024421e-05  1.1394750062870372e-04 0.0000000000000000e+00 -4.3856657924586241e-06  8.5063440648620384e-05 0.0000000000000000e+00 -5.1126708489452298e-06  6.1407925368908172e-05 0.0000000000000000e+00 -9.5918448333189288e-06  4.7630631444562101e-05 0.0000000000000000e+00 -5.3455935338817675e-06  2.1361313305649593e-05 0.0000000000000000e+00 -9.1632466169527404e-06  6.0966131653748294e-06 0.0000000000000000e+00 -4.7933200423714324e-06  -2.1849310890025590e-05 0.0000000000000000e+00 -8.4673986373598269e-06  -3.5470420091184594e-05 0.0000000000000000e+00 -3.6479389040486150e-06  -6.3068612062555274e-05 0.0000000000000000e+00 -6.6784007850119847e-06  -6.8485078412522063e-06 0.0000000000000000e+00 3.2504603409927001e-07  -4.4506727726434293e-05 0.0000000000000000e+00 9.5095633597094749e-06  -6.0340997181875527e-05 0.0000000000000000e+00 4.8092153564079699e-06  -7.3324785742711569e-05 0.0000000000000000e+00 -1.8303002592083865e-06  -9.7456293882561973e-05 0.0000000000000000e+00 -4.7504917416817684e-06  -1.0331653864197770e-04 0.0000000000000000e+00 4.2197843531013890e-07  -1.2182897921758506e-04 0.0000000000000000e+00 -3.0648505414948986e-06  -1.2347314437281199e-04 0.0000000000000000e+00 2.8412955488818500e-06  -1.0955049797240952e-04 0.0000000000000000e+00 -8.5157834591931261e-06  -1.0015000726057194e-04 0.0000000000000000e+00 5.9676495738478516e-06  -1.2954448489931598e-04 0.0000000000000000e+00 -5.6059941178893998e-06  -1.1543128693452054e-04 0.0000000000000000e+00 8.2468355083132718e-06  -1.1231221481205023e-04 0.0000000000000000e+00 -1.0916814718056408e-05  -1.2457494730437320e-04 0.0000000000000000e+00 -7.9759520040325967e-06  -8.6816615511013011e-05 0.0000000000000000e+00 1.0750146812346028e-05  -2.0133891113095825e-05 0.0000000000000000e+00 1.5037696605626429e-05  -8.3430410491613661e-05 0.0000000000000000e+00 8.0174817667219271e-06  -1.0169701725067045e-04 0.0000000000000000e+00 -1.2224548072254403e-05  -1.0791829003339194e-04 0.0000000000000000e+00 -8.8162636598100593e-06  -1.3235841179053736e-04 0.0000000000000000e+00 4.8539331364783857e-06  -4.7142438065022771e-05 0.0000000000000000e+00 -1.1513040138516461e-05  -9.7066860841426675e-05 0.0000000000000000e+00 1.2564141568766115e-05  3.0477241960029889e-05 0.0000000000000000e+00 1.2082173842123092e-05  -1.2704701074473394e-04 0.0000000000000000e+00 -3.2528067658465644e-06  -8.3681526410465823e-05 0.0000000000000000e+00 -1.4252023983828056e-05  -6.5093132603491144e-05 0.0000000000000000e+00 1.3895114429500387e-05  -7.9254423829059289e-05 0.0000000000000000e+00 -1.2381531249738423e-05  -8.1218644917421936e-05 0.0000000000000000e+00 -8.4227653713323994e-06  -6.8266221707086853e-05 0.0000000000000000e+00 7.9902236053864208e-06  -3.4248699095829811e-05 0.0000000000000000e+00 1.1280372203520016e-06  -6.9300144590945408e-05 0.0000000000000000e+00 1.5096966945641424e-05  -1.0021722564710063e-04 0.0000000000000000e+00 1.2686492171785276e-05  -4.7691874772511509e-05 0.0000000000000000e+00 -1.1559719795400686e-05  -4.6733897161867273e-05 0.0000000000000000e+00 -7.2583645206344767e-06  -4.2165438907202121e-05 0.0000000000000000e+00 -1.4588432727621000e-05  6.9054653551942592e-05 0.0000000000000000e+00 -4.9835597328750408e-07  -9.3269368813226667e-05 0.0000000000000000e+00 3.2338732427756732e-06  -1.1307606675171638e-04 0.0000000000000000e+00 5.8020545760095243e-06  2.4739027971052752e-05 0.0000000000000000e+00 8.0271103131764008e-06  -9.1257161268483221e-06 0.0000000000000000e+00 1.0574900457522454e-05  -3.2192543013724831e-06 0.0000000000000000e+00 1.3602755875546822e-05  -3.9610563841080286e-05 0.0000000000000000e+00 1.5669459276301383e-05  -6.4049598228408199e-05 0.0000000000000000e+00 1.2370421271689580e-05  3.3424075734158925e-05 0.0000000000000000e+00 -1.2213950593966352e-05  -7.6617676505466177e-05 0.0000000000000000e+00 -3.9350119523220137e-06  -1.0680954040902580e-05 0.0000000000000000e+00 -1.4414778644250671e-05  -2.4118199400404708e-05 0.0000000000000000e+00 -1.6045964908958042e-05  -1.5299634937577332e-05 0.0000000000000000e+00 5.8823409248997059e-06  -3.1060561103655032e-05 0.0000000000000000e+00 1.6115323999715218e-05  -1.0068571478100310e-05 0.0000000000000000e+00 -9.7525398980637383e-06  -6.5961172627225883e-05 0.0000000000000000e+00 1.4751578885601569e-05  -9.8754090920432299e-05 0.0000000000000000e+00 1.0684832866472871e-05  -1.2169858725063564e-04 0.0000000000000000e+00 8.3610098688112973e-06  -1.3155026537658635e-04 0.0000000000000000e+00 2.6969340522784886e-06  -1.3666982616024264e-04 0.0000000000000000e+00 -1.6942511106468068e-06  -5.5261641840262740e-05 0.0000000000000000e+00 -1.4046236311978460e-05  -8.2239494788952211e-05 0.0000000000000000e+00 -1.1721471160008004e-05  -1.1712536768308599e-05 0.0000000000000000e+00 -5.6746996885714243e-06  -4.8109155049562920e-06 0.0000000000000000e+00 -1.1462667609751557e-05  5.4506806301285799e-05 0.0000000000000000e+00 4.6140604339093394e-06  1.1973703136412723e-04 0.0000000000000000e+00 8.1735142387599503e-06  7.2625306669620333e-06 0.0000000000000000e+00 -1.5899453325586912e-05  2.1491805455790177e-05 0.0000000000000000e+00 -2.6840212464582629e-06  -4.3131909949154693e-05 0.0000000000000000e+00 1.2145793712806274e-05  1.3128624428135346e-04 0.0000000000000000e+00 -2.9051972864716028e-06  8.7511674503110940e-05 0.0000000000000000e+00 4.6809609113212007e-06  1.0289213141546934e-04 0.0000000000000000e+00 -2.0897945999356822e-07  -1.0478394904278951e-04 0.0000000000000000e+00 -4.6752487188304146e-06  -4.5075810604045765e-05 0.0000000000000000e+00 1.3718992688752252e-06  -7.5874937159345866e-05 0.0000000000000000e+00 3.2906561644841631e-06  -7.7664367148628622e-06 0.0000000000000000e+00 -1.3317747608767868e-05  -3.4251314041532058e-05 0.0000000000000000e+00 -1.6171254461610333e-05  -7.1031919529279669e-05 0.0000000000000000e+00 -1.4774131449976947e-05  3.1346724629336211e-05 0.0000000000000000e+00 -8.9693344252219816e-07  3.6161238370994556e-06 0.0000000000000000e+00 1.9341331185020550e-06  7.6986257500191171e-05 0.0000000000000000e+00 9.6915352723748209e-06  1.3147004395082704e-04 0.0000000000000000e+00 2.5851551284191323e-06  6.3228325640528267e-05 0.0000000000000000e+00 1.4784600244839228e-05  -1.1572331194413243e-04 0.0000000000000000e+00 4.6368311283145394e-07  -2.5446529329021167e-05 0.0000000000000000e+00 1.2412808163732007e-05  6.9243697778046770e-05 0.0000000000000000e+00 -1.2690148300871197e-05  -1.1957944251663971e-04 0.0000000000000000e+00 9.5505039462759752e-06  3.1496582417663791e-05 0.0000000000000000e+00 -1.0795140456140331e-05  3.5322085797495077e-05 0.0000000000000000e+00 1.4252871527808125e-05  1.9357732758378413e-05 0.0000000000000000e+00 3.6615086514122541e-06  -8.6302181544878063e-05 0.0000000000000000e+00 -8.4679952789236827e-06  1.1504281735346146e-04 0.0000000000000000e+00 -4.8832356943047211e-06  -2.2566123365240182e-06 0.0000000000000000e+00 1.6007858703931337e-05  1.0517499788923741e-04 0.0000000000000000e+00 8.3607422074777043e-06  -1.3314085203953576e-04 0.0000000000000000e+00 -4.4612677911203657e-07  -7.0334853746377706e-05 0.0000000000000000e+00 1.6334138693666876e-07  -4.2969045996839043e-05 0.0000000000000000e+00 -2.9217379489887893e-06  1.2286798807017275e-04 0.0000000000000000e+00 -1.3154499355699286e-07  -3.2195507537578485e-05 0.0000000000000000e+00 1.4227587413109671e-05  4.0128008019724702e-05 0.0000000000000000e+00 -1.4414352440352211e-05  -4.9360254240782861e-05 0.0000000000000000e+00 -1.5887699696019659e-05  -5.0144131172805792e-05 0.0000000000000000e+00 5.5952863222070146e-06  1.1708578231215895e-04 0.0000000000000000e+00 5.1659291013468866e-06  -9.3422012268757907e-06 0.0000000000000000e+00 -1.7494290312357950e-06  -9.1260857887887767e-05 0.0000000000000000e+00 -1.2883234500511816e-05  -6.3474950346954393e-05 0.0000000000000000e+00 -1.4993061564915987e-05  -3.8889416013174315e-05 0.0000000000000000e+00 9.0960111075348314e-06  -9.5982325701730414e-05 0.0000000000000000e+00 -1.0293160043102248e-06  -1.9804512731457901e-11 0.0000000000000000e+00 -2.3324587298419365e-09  -4.6264102926075909e-05 0.0000000000000000e+00 4.5758829079948364e-07  6.9983200206074643e-05 0.0000000000000000e+00 -7.1838573353495964e-08  -2.7990435592162741e-05 0.0000000000000000e+00 3.7020954276528419e-06  5.2324261896930550e-05 0.0000000000000000e+00 3.4128178361554272e-06  -3.4589299935651982e-05 0.0000000000000000e+00 -7.4493737934237218e-06  -7.2014978304132561e-05 0.0000000000000000e+00 -7.0084571312773299e-10  1.3804077750129475e-05 0.0000000000000000e+00 -3.1998619671843036e-06  4.8990525754303459e-05 0.0000000000000000e+00 -5.0610608146800498e-06  -3.8382149081809681e-05 0.0000000000000000e+00 7.2401032365393921e-06  3.6477208660742991e-05 0.0000000000000000e+00 5.8622328692616570e-06  -1.3469731633923099e-05 0.0000000000000000e+00 -6.3171266778206683e-06  1.1881271239085368e-05 0.0000000000000000e+00 2.8388361658927594e-08  2.9303357709138220e-05 0.0000000000000000e+00 -8.2705366257782581e-06  -1.1425574703548253e-05 0.0000000000000000e+00 6.2805974084237219e-06  2.5781880271299245e-05 0.0000000000000000e+00 8.8040238323748883e-06  -4.8785996237215723e-05 0.0000000000000000e+00 -3.1904052606563349e-06  -7.1877490980288682e-05 0.0000000000000000e+00 -4.8340204908176216e-06  7.3385892640013260e-05 0.0000000000000000e+00 6.1530961899842007e-06  -9.9743423580596719e-06 0.0000000000000000e+00 9.3301518823404943e-06  1.4866791751144001e-05 0.0000000000000000e+00 2.4222342377306767e-06  6.1862744980119489e-05 0.0000000000000000e+00 -5.1842399645389306e-06  6.1181883608913234e-05 0.0000000000000000e+00 4.7470209616245199e-07  -7.1184608060771603e-05 0.0000000000000000e+00 5.8495802526856797e-06  8.6776912800971687e-05 0.0000000000000000e+00 -9.3719341134737650e-07  -1.7628437896497286e-05 0.0000000000000000e+00 -8.3223603571107921e-06  -8.3586057438958614e-05 0.0000000000000000e+00 3.8154682188769356e-06  8.2131848874024394e-05 0.0000000000000000e+00 -5.7533469295598319e-06  6.0240454930129686e-05 0.0000000000000000e+00 -1.4277478352983067e-06  -7.8121464374435301e-05 0.0000000000000000e+00 -5.8701593701913125e-06  1.8431870764089303e-05 0.0000000000000000e+00 -1.0040943107572600e-05  -2.7896771553233164e-05 0.0000000000000000e+00 -2.8448079070814891e-06  -2.6929569111952100e-05 0.0000000000000000e+00 2.6477415565523816e-06  3.2241703570342854e-05 0.0000000000000000e+00 5.2310200178903253e-06  -6.9946255611073538e-05 0.0000000000000000e+00 2.2377878936196567e-06  2.7273001317919838e-05 0.0000000000000000e+00 -5.3518702262302301e-06  -1.9342221692526450e-05 0.0000000000000000e+00 -1.2716622889570515e-06  -4.7960889075045927e-05 0.0000000000000000e+00 -9.4921241343476797e-06  8.1127888701004210e-05 0.0000000000000000e+00 4.4666318284428496e-06  1.0479875459667617e-05 0.0000000000000000e+00 1.3325156244051755e-06  3.1325478824047146e-05 0.0000000000000000e+00 -2.9558429048139033e-06  </DataArray> 
</PointData> 
</Piece>
</UnstructuredGrid>
</VTKFile>