<?xml version="1.0"?>
<VTKFile type="UnstructuredGrid"  version="0.1"  >
<UnstructuredGrid>
<Piece  NumberOfPoints="201" NumberOfCells="657">
<Points>
<DataArray  type="Float64"  NumberOfComponents="3"  format="ascii">-0.6389162552703298 -5.049430927559299 541.8816456018719  -0.2561852945324298 4.848049620841762 -542.2783960629441  1272.766677689807 4.303041998013026 -522.1586844152714  2399.639997470319 2.631176602024874 -457.6867554422925  3266.655961917291 0.9469191719150249 -346.6663345562287  3808.655056317544 0.1367250441753171 -186.9003474193787  3992.986898487628 -0.3218359698864365 0.2357066911036159  3808.800346301082 -0.7130907723622555 186.9365580780809  3266.634933923325 -1.308540285030167 346.3164254238555  2399.485421563566 -2.631834800412294 458.3096707778714  1272.863819046654 -3.900493508303721 521.7121589202022  1603.683906833496 -1120.958278464669 -404.3323525966309  1596.246815926842 870.2068151597377 431.0629946267462  3802.777433005724 -990.6202922043765 -39.03648121940259  2775.915757689738 -1088.236627065762 456.2011488066871  3475.668107037249 1003.471152248099 196.0607062896065  3461.975049063275 1004.211396120139 -312.3023328752184  1788.649606461832 1008.880834154128 -553.1085382756901  620.0292991916898 -1012.462338723956 599.1466714887981  2760.040661322337 -1000.255105549535 -330.4761864142812  1922.052192852054 -1962.776393046878 -275.8879023660616  2831.510824288607 -1917.711217185507 -176.0162773080143  1937.782143924798 -2736.773147185801 -116.3546553185681  2716.494326628107 -2563.703659761382 -1.480116371902845  1702.005997861898 -3247.280267377178 57.11019432383513  2421.885023716577 -2915.126423960911 181.9761491119789  1270.605118043371 -3466.633898001351 237.132357446225  1851.175817354815 -3019.372040277174 368.2326848058185  666.7361825870132 -3381.49312687026 402.8350537764851  1194.418534237776 -2771.562339925035 516.3378032035547  -46.47908796649629 -2975.872451616967 529.6503009406925  2839.678471880309 -2374.075991881339 299.1428649350278  2760.791940760565 1000.011850597764 330.7961164936004  2775.302142112563 1930.537952506177 184.0934498045972  3338.816398219578 1845.791547559893 39.82296840763254  451.0270173332846 -2225.397152915138 602.0088000795639  1650.596358811621 -1949.994026076806 557.3867203951695  1924.154966060664 1851.531533004341 293.1318595282581  1835.19832680141 2696.059213764448 139.1570803159984  3810.363358446576 -966.7887610608292 140.4246660018496  3355.306155029165 -1993.96466815554 113.8564069151611  3483.856361389634 -1004.442360104326 -193.4138817773124  619.8723048924151 1012.674661711014 -598.6400341045126  2733.737090889686 978.6017376730734 -462.6446739477703  2754.056411363598 1922.064195609184 -414.8886464765517  829.0724801908968 -3281.843059035296 -50.89386215478829  -580.2563432465829 -3421.356331578577 393.4281458031551  825.2958142699656 -2017.421604529447 -315.5736516739821  3316.382210801236 1868.736489217031 -240.8485877410908  2479.189160687939 2695.531711078337 -314.9642140561673  1773.217949814627 2632.267009867875 -478.2511694327349  1389.281153319844 3263.790883351079 -360.9704680048092  617.7760718876957 3074.651856057757 -495.7792235388658  178.8355654215196 3530.23624603736 -358.2237248201158  -632.6870205408925 3161.270803280263 -474.7924883657755  -1036.814075681369 3466.191990325924 -311.5177437511077  -1834.269139596408 2968.676255675787 -390.7361603906977  -199.7941745913155 3666.284975765304 -183.3649073800236  -1285.394018870705 -2859.572088524674 492.9969541086335  -1761.291773599547 -3149.902770785342 334.0707792562421  -2144.478131966067 3078.514257110837 -223.6787544368176  -2839.161846116889 2414.033393673686 -285.486662674891  -3017.574245830305 2405.975309404321 -111.0414677783936  -3546.469873553122 1590.022520976735 -180.7198759094285  -3594.577307590765 1509.109888937109 12.81460290212464  -3168.310100197796 1511.534953358369 -360.0555072092941  -2912.373805383304 2229.849445292618 72.81127837047006  -3759.185631789766 661.1736783997233 -213.3112332819694  -3339.043287819494 1243.349899079337 193.9086289728855  -3227.655430333527 427.2022837691268 -373.6775082934954  -3603.228163113274 -479.7401026887185 -225.4279777765135  -2497.581307787261 1876.566298456029 235.4142839198477  -566.9241463574557 -1549.104801356562 611.5043211556648  -2417.770222843171 -2444.43672300668 405.0058999400887  -2911.059641910956 -651.1454718205159 -349.7646936231285  -3119.504570300186 -1525.700101981396 -195.538709642101  -3842.91982835226 419.5483449151063 130.625008071489  -1352.431006783383 2472.237615153809 -542.7594540446499  -2775.301298009468 802.7251413521319 351.2941677705509  872.2576780762822 2496.609651375536 239.9745566426291  -3696.8614888116 -1247.427183660769 -38.25560750710524  -2375.312067348394 264.3333018169223 -476.9764700989471  -1849.878373599592 1433.469360108178 353.7396192428017  -2268.131977228053 -1646.073173339194 -296.1978851133143  -2352.219607160123 -2440.102118742166 -136.2733203784532  -1980.456924164265 2745.963139990155 107.3824262890198  -1003.600941434377 -3547.367193761319 226.9484027476716  -1957.447371198196 239.0614063943883 471.5006936270597  -2863.453362505815 -350.1189358896992 428.4907712686434  -1368.320699349755 -2453.995020019963 -226.9428737111786  -1358.750094337448 -3113.341602672528 -66.78092105504584  -1192.755720261505 -1560.993272029077 -366.7040708143801  2020.353755845169 3166.628549968067 -182.9231046172955  -2721.34750383051 -2614.619687276928 245.6153465146698  -3285.198557532415 -1770.128910654333 282.9318599114983  718.0751096550408 3198.129213336187 85.85137738479463  -261.8064010142151 2892.612091680126 175.5801011666402  -91.50719915515774 2189.67757504544 300.901543928752  -1114.338598705273 927.1656248866466 442.2832958725979  -1831.782538690162 -2010.444583947151 539.3905015586085  955.974813713798 2445.257138210985 -570.3220334038857  -2236.894813940311 -2941.528185043795 27.5255727364228  -302.5878570264118 1885.38131642099 -615.3269110749128  -676.2867102381375 814.6205470187782 -589.2253879345965  -445.3123757199822 3436.590210613285 8.661771901782039  -870.8313218802496 -578.8271421462217 572.3773477422001  -291.0305238723344 -3026.537339458337 -144.3098861200546  -1866.901898354467 -921.7995810946754 545.8611396919972  -2840.236780348707 -1472.248156839795 435.5886946585377  -3518.188169865307 -706.4454370353765 305.2297883143779  -3827.317266961466 -914.3858730882779 133.0319506978904  -3975.156224633065 -118.520490440697 -47.23574429686518  -1567.754840750606 1601.113306820749 -573.0456699394952  -2357.764204226189 1763.178276648584 -494.3720377915878  -340.7964005125408 -3462.818269023475 -0.6638067930036846  -137.8299611526908 2737.131900601462 -563.4457589956232  1591.579888291874 3233.578301645065 -19.66559344007662  3461.933581622467 -961.1025326784601 314.1185125300379  204.8667181964208 -1054.257568013506 -441.3703721298979  629.4545598927632 -3583.185082211887 100.0959805889756  -1234.823218855326 2367.541605277078 248.247838250997  3818.829789122947 928.8528187770554 -140.351310945789  2551.808557479077 2670.09606509871 11.44014909469419  3005.202347602118 2419.454603655229 -131.9186067319086  -3051.015656219601 -2191.662229841417 -34.68695480194403  -1319.857176181416 3455.267330078159 -136.5342332197901  -2217.253720513462 2984.243196550546 -48.93233844233794  -220.9910457219148 -2269.97274033735 -286.6071841795869  -960.7568107200993 -412.792559093454 -495.8210413653784  -2010.23888654745 -664.2455452265546 -430.9429201188904  919.1146234084651 3568.750637974444 -220.4140819142223  106.8469848493437 -3648.974393360161 261.3572375109262  2222.42773060206 -2337.245290304829 459.720927039241  3824.942937258394 940.5832983693537 33.18726054058801  1789.186822831002 -1001.516373143927 552.9166162752457  -3374.474873154814 -1964.809143768477 116.7102027607693  -726.6155787736521 -2449.599038689605 579.782051626853  1977.780748578602 1798.872215928036 -535.4153579082969  -3448.292557966631 294.9583648616452 285.5917098666935  906.2694298262459 -2754.091912542512 -188.8697347912857  1001.346761499994 1785.438018771828 342.977983191354  567.1229302467987 3554.123104238363 -66.99822016200375  -2498.270930182869 2317.03494275871 -412.1520727014221  3344.917924596443 -1778.089014199969 -62.78650936898826  -63.24602768469205 967.977966065273 450.9693893253067  3042.531220057403 -1735.391212709399 369.6511224559924  -3875.512893162824 880.2861012327201 -59.52948018574233  -2058.859388391713 -3148.59817129093 171.8775462562419  -1257.891480771896 -3434.252587243096 84.54084379270414  3580.603238358592 1628.915682481363 -87.78538674464977  -912.5569848461417 1831.582137195233 339.7865403726182  1135.777148680056 1668.723753959787 -595.2943735874385  -1387.234250445312 278.9079396995486 -537.9095352523067  -1461.677173412758 3220.596429771319 11.01220131643623  3402.574286884634 -1654.979792670141 254.5683464802925  -272.5143653434507 -3645.994811343868 134.6847727049606  -2604.776718140351 968.3858683034306 -479.214351505507  -1794.499236418966 827.188978574953 -547.2359441208961  -1124.796213009138 2969.200469466617 129.3042363632893  -2803.638238019013 -2610.147116029265 102.8728602053903  0.03546184429533761 0.06346305429973817 -0.1041489870437285  -1307.408379392547 -1460.809586171453 120.7998248705463  1977.531537156011 570.0316532547571 -43.70369481741211  -789.2406585564111 1535.092022015696 9.242924707353652  1475.954833335421 -1090.119825674434 190.9943413709034  -968.0492751791194 162.1582099403696 -255.328137685007  -2034.346813015762 290.0639661237526 -20.46750167557213  389.1567286397981 1737.246090697188 -233.3028130661166  1378.571879791681 -855.740202892157 -101.7003787486776  -1075.733551838644 -165.2205714354797 248.7849067430678  1027.455939162537 1291.702424574744 96.88974290243414  -379.3307444803363 -1474.497056409877 -98.51203745331799  337.0585306439788 -2125.058717937397 150.8697643092856  821.1711167892868 569.750125
[...]
<PointData  Vectors="Forcing"> 
<DataArray  type="Float64"  Name="Forcing"  NumberOfComponents="3" format="ascii">-2.3881771377407983e-06 -1.9913397213237404e-05 -1.8160098873610080e-04  -1.5657072235716616e-06 1.8723755496141823e-05 1.8053396183668314e-04  2.4856288453518907e-05 1.8216893658287602e-05 1.7055260019122897e-04  4.4350977659773620e-05 1.6747197123265672e-05 1.5492540949071313e-04  6.3723416373324938e-05 8.8499934178951606e-06 7.5543713740174701e-05  6.6573556523628032e-05 7.5588755806279857e-06 5.9325774488231948e-05  6.5892383614306525e-05 7.2157310641090758e-08 1.0059490184224364e-05  6.4194338615678780e-05 -6.8622256667766079e-06 -5.0887850795607830e-05  6.3331677773305478e-05 -8.5718672125705734e-06 -8.3221685325649550e-05  4.4174590838897814e-05 -1.4597021579351525e-05 -1.4878311773104284e-04  2.3955882363704190e-05 -1.4761109804904193e-05 -1.5846319890853208e-04  3.2246694987393023e-05 -1.5947075719094046e-06 1.3133951635280932e-04  3.0398535626760026e-05 -5.4645356233191435e-06 -1.6825249715385433e-04  5.7793539678363170e-05 -5.4530019351208683e-06 3.7864305216715829e-05  5.1071026361311042e-05 -2.5258009794433173e-05 -1.1878050538315606e-04  6.5514892397700193e-05 4.8761410726387295e-06 -8.7677860764261498e-05  6.2882932227569985e-05 1.8881066054379290e-05 7.4490939372607234e-05  3.4975112364907522e-05 2.8552534453995692e-05 1.3131716327916841e-04  1.2018762285589984e-05 -2.9193071744106109e-05 -1.2712218387297931e-04  5.1252391928978438e-05 1.8997551918654047e-06 1.3807044053655543e-04  3.6333424248820291e-05 -1.1675130826957279e-05 1.4549977271568714e-04  5.0191062737913403e-05 -1.0813989822254647e-05 1.0983813202428492e-04  3.5747213611844151e-05 -2.4826681478177202e-05 1.0033462787300084e-04  4.5158227035352476e-05 -2.0991626344888213e-05 6.4897149724336186e-05  3.0901280692671778e-05 -3.3456204765403058e-05 7.0479337091518653e-05  3.8295070832731104e-05 -2.6645379518048298e-05 1.0333830899656514e-05  1.9716481694091230e-05 -3.5062146819754566e-05 1.7224565761862357e-05  3.5358123035318197e-05 -4.2923038980329261e-05 -1.5223599199856360e-05  1.1820301090092412e-05 -4.0779162826188259e-05 -3.3159695342296151e-05  2.3294419540782582e-05 -4.4348081649880328e-05 -4.2370285570141091e-05  -3.7299656189155113e-07 -4.1297683756386581e-05 -7.2935742428131077e-05  4.6443741685022002e-05 -2.5394151148199921e-05 -3.5821122665040385e-05  4.8295113903758601e-05 -3.0362182284281340e-06 -1.4748455905978642e-04  5.0806946027395609e-05 1.2796031117460043e-05 -1.0481705241520432e-04  5.9642895636065200e-05 1.7030324550303463e-05 -7.0544837678934648e-05  8.6957235775293032e-06 -4.0916346579231425e-05 -1.2929736889873849e-04  2.9568986059522631e-05 -3.5979821956429192e-05 -1.2667816103835501e-04  3.3369540770530960e-05 7.0236736561101798e-06 -1.6018290782334951e-04  3.1939271380883572e-05 2.2404522338615358e-05 -1.1068947566666016e-04  5.6235634930203160e-05 -1.2390626168180629e-05 -2.7395623368767061e-05  5.2181268370464178e-05 -1.7118757487463086e-05 1.3350837075279090e-05  6.1600665256674109e-05 -3.7437879441951923e-06 9.8421723268856832e-05  1.2627055503400646e-05 2.9704623870758384e-05 1.6826832780621827e-04  4.8058285474867425e-05 2.3927016680842972e-05 1.2424069569702794e-04  4.8701338385148623e-05 2.9799379269155236e-05 6.6108416653691974e-05  1.5386873217564918e-05 -3.7462161128199868e-05 1.0036067055486201e-04  -1.0673969412223986e-05 -3.7767052696043980e-05 -4.1430951078643427e-05  1.5542557050568726e-05 -1.2564492381667116e-05 1.5842173061685739e-04  5.5070540877109654e-05 2.3594651502003267e-05 3.4295006755241219e-05  3.8971094691036001e-05 3.1186119176019479e-05 2.7911211430890771e-05  3.1208897503629504e-05 3.6635732300918924e-05 7.2521877253586850e-05  1.9719656965735023e-05 3.6019245004634353e-05 2.9960872678841426e-05  1.0348917643420191e-05 3.9357046487101938e-05 8.4025959334793295e-05  2.6295496299536345e-06 3.8019308947543807e-05 2.7663708084877339e-05  -1.0225676338256775e-05 3.8795590019228743e-05 5.6294602150451951e-05  -1.7689476759975563e-05 3.9108459856132793e-05 -2.6776846414871793e-06  -3.1234364145227738e-05 3.5291936502129824e-05 4.8674380988189966e-05  -3.3553394147875474e-06 3.8223413710585656e-05 -4.6401955093116992e-05  -2.1501505502655959e-05 -3.8487532990738986e-05 -7.0439956784225179e-05  -3.3800841447847355e-05 -4.2295349699347835e-05 -9.4022651495523394e-06  -3.4604558946960279e-05 3.0118938256545295e-05 -1.2508792579242228e-05  -4.4642479805795718e-05 2.6846915468777977e-05 3.2137315112075330e-05  -5.3118590364231366e-05 2.5927504638666836e-05 -3.5066233660746458e-05  -5.6963733386245420e-05 1.5938109533462726e-05 1.2869801302061849e-05  -6.1470201176404521e-05 1.2498647206743877e-05 -5.0350670641502778e-05  -5.9361804537255132e-05 2.7348959726145475e-05 5.2114034385476918e-05  -4.9464569357078478e-05 2.0396174904706667e-05 -8.6112922962950294e-05  -6.5787238981204128e-05 1.3662873385896910e-05 4.9845082541674343e-05  -6.4267845641918374e-05 9.3134768429445962e-06 -8.1857503338624292e-05  -5.7731779610093645e-05 1.6010166942817932e-05 9.0241888466428553e-05  -6.2617953949450304e-05 1.0333714852043149e-06 7.4322279312815509e-05  -4.3094746900751999e-05 7.7131349813755546e-06 -1.4077217618957354e-04  -8.9859302290621935e-06 -3.4508425500662112e-05 -1.4474027522443433e-04  -4.1766260675994638e-05 -3.3182741249928993e-05 -6.2440510837130794e-05  -5.0706929145116117e-05 6.1283795083685994e-06 1.4056896419524224e-04  -5.6108551885880656e-05 -8.9715295064625288e-06 1.1345725000424965e-04  -6.1967452253610604e-05 1.8149104977676918e-06 -5.4444387230549203e-05  -2.4860800803165861e-05 4.1522238338373621e-05 6.8782856518341732e-05  -5.1432957887792738e-05 -2.2387502911453651e-06 -1.1489598882350617e-04  1.6522355985358615e-05 2.0332054102564047e-05 -1.4214505981879081e-04  -5.9912679551882171e-05 -8.8641431987234210e-06 4.3830849761856345e-05  -4.2631455583329700e-05 1.9371501359545484e-05 1.4782162855643495e-04  -3.4306918871132638e-05 4.4292895106632051e-06 -1.5683932291353625e-04  -4.6269025406142529e-05 -1.1795165690140762e-05 1.2156585595905943e-04  -4.4676445215232083e-05 -2.1969235156104061e-05 1.1696555562351383e-04  -3.3711010525313547e-05 2.3117743377618829e-05 -1.1088724413692695e-04  -1.6212357633866047e-05 -3.8651078036423223e-05 2.1708940937733958e-05  -3.5383138836519690e-05 -1.3800164739199899e-05 -1.6604408921806120e-04  -4.9970092773902497e-05 -1.7648457006860846e-05 -1.2910767139660172e-04  -2.6895894108779022e-05 -1.9391428893013248e-05 1.3657123193501863e-04  -2.4026966975232715e-05 -2.8373791238545930e-05 1.0964018126371134e-04  -2.3610057019584867e-05 -3.0455841724146458e-06 1.8178296500149813e-04  3.2978144978901106e-05 3.1905391891416718e-05 -3.8946036686834319e-05  -4.4884316925257887e-05 -3.0076067160540907e-05 -1.8072636870232955e-05  -5.6847797124003577e-05 -2.5850818767337917e-05 -4.1873155328632162e-05  1.2331564521946914e-05 3.0333687468289099e-05 -1.2217825216048446e-04  -5.6517157175805367e-06 2.4298811342140262e-05 -1.4326589043837424e-04  -2.1930639414891240e-06 1.7130516023938728e-05 -1.5358279571791087e-04  -2.1525165807403257e-05 -4.8013739909186532e-06 -1.7220153666445997e-04  -3.2512226629775848e-05 -3.6636917742369451e-05 -1.0934949202081795e-04  1.6429533294935442e-05 4.1293530846038282e-05 1.1296083427907446e-04  -3.9369068466925816e-05 -2.9643618981981109e-05 8.4356970721100903e-05  -5.0604135088111426e-06 3.7573646247581410e-05 1.0760579113939375e-04  -1.2269103095873434e-05 2.6208213948325812e-05 1.7622349976232458e-04  -7.5687922242377986e-06 3.1603057171395170e-05 -9.8036851238700806e-05  -1.7131016815507509e-05 -2.7879581378489484e-05 -1.7469961783538027e-04  -5.2157389764572646e-06 -2.5768340445426371e-05 1.3855743163567865e-04  -3.4658074442716212e-05 -2.7548100744111297e-05 -1.2834638559692149e-04  -4.8433498387269038e-05 -2.9432987110215282e-05 -1.1315683457046032e-04  -6.6802717177640627e-05 -1.5728484450113067e-05 -5.6915783925972184e-05  -6.9440644537500912e-05 -1.2503500643923396e-05 -1.8454312338944035e-05  -6.5973621696291968e-05 1.8564138624229784e-06 2.4112340736906076e-05  -2.8504393525968570e-05 3.4466477939486712e-05 1.3240912421520057e-04  -4.1250589748223340e-05 2.9598348289338024e-05 1.0178876860106839e-04  -7.2202356059287549e-06 -3.2398465733163980e-05 1.1026971745780338e-04  -1.3922450188301389e-06 4.6289210157898378e-05 6.8094498540193464e-05  2.6978395747574442e-05 2.8746664707202047e-05 -8.2999042594469140e-05  5.8730293378547477e-05 -1.7434677578006347e-05 -6.3240427445078760e-05  4.9206557176547568e-06 2.6327936224302296e-06 1.7322734846270970e-04  1.1516231695609006e-05 -3.4497816236813516e-05 7.2768934734321187e-05  -2.3061106422406422e-05 1.8901042519578832e-05 -1.5036515867111172e-04  5.9526150099754348e-05 1.2113199373342130e-05 2.7288264262747122e-05  4.2752402103392927e-05 2.2938671247096870e-05 -8.0637201567722373e-05  4.9120499321230803e-05 2.1084989205930266e-05 -4.0085722239534956e-05  -5.0443149442094649e-05 -1.8390140952205140e-05 7.2098768466824856e-05  -1.9579747150915162e-05 3.0077219648213250e-05 -5.1356991799008454e-05  -3.7377578691272139e-05 3.0051778304360424e-05 -6.5613575100712857e-05  -3.3621768570501253e-06 -1.4923583849946643e-05 1.6330935225613124e-04  -1.8920006295630587e-05 1.4625342564765549e-05 1.9346880648465149e-04  -4.0420593884079876e-05 5.8450891927694082e-06 1.3483414206784473e-04  1.4589769107717479e-05 3.4283555510244721e-05 -2.5972351290928975e-05  -2.0946818724469752e-07 -3.8592451337382926e-05 1.1789478619705318e-05  3.7641117366998493e-05 -3.5863846449419574e-05 -7.7647390365351477e-05  6.0001647674786826e-05 5.8958368683644756e-06 -3.6978953817644493e-05  3.4377678926950168e-05 -2.8297123191195004e-05 -1.3287872124214645e-04  -5.3631874355854146e-05 -1.9135214771016637e-05 1.7002635940943935e-05  -1.4673179993122235e-05 -4.5306634061598185e-05 -7.7762941615120435e-05  3.4482356525287320e-05 3.2841223495781269e-05 1.2070885178368458e-04  -5.9374185959578815e-05 -5.0630514910104780e-06 -1.0284399774718864e-04  1.6150630864805470e-05 -2.1684858253739434e-05 1.4695301001301731e-04  1.9685023509682345e-05 8.4371800975645716e-06 -1.7147112801105933e-04  9.9769870658357974e-06 3.4985431427981052e-05 -8.0681206108775509e-05  -4.1792109399747618e-05 3.1485563626248030e-05 8.5450369953362219e-05  5.3343305615527277e-05 -1.1420739712556703e-05 6.1666112334379160e-05  -2.9624087003885328e-06 -5.5775272698429995e-06 -1.8006600757382754e-04  5.1239706754221243e-05 -2.7754390056590480e-05 -8.2291451893277506e-05  -6.1927099680414508e-05 8.4592038942183966e-06 -2.8663333819348671e-06  -3.4622688656511829e-05 -3.0881611487678971e-05 2.9542269513471178e-05  -2.3478927494604951e-05 -4.1351289340834764e-05 6.8626657466943223e-05  6.0165456379214907e-05 1.4817189615309135e-05 -2.5677566417279580e-05  -1.7903377938021076e-05 1.1198923109409935e-05 -1.7484662429502308e-04  2.2719174110313332e-05 3.4488801999198009e-05 1.3600661549041434e-04  -2.3192060203195582e-05 2.3329468956351575e-05 1.7000810878499667e-04  -2.4760943805245728e-05 3.0428507643576271e-05 -8.5119575858286494e-05  5.0469062372704929e-05 -1.8850466702756520e-05 -4.4676721784195154e-05  -4.0463090698895179e-06 -3.8848544095298917e-05 4.6149158035082994e-05  -4.3453006719818528e-05 2.5131466082833221e-05 1.5246904644360631e-04  -3.3114028156614222e-05 2.8412796186504708e-05 1.5967509372375236e-04  -1.9228422309527673e-05 2.3963822866269834e-05 -1.2568847694446371e-04  -4.2733868618198526e-05 -2.0720563492349642e-05 3.5557598092197782e-05  5.8372490705486439e-07 2.6119345859506322e-06 -7.3771392117686173e-06  -1.9426823638979427e-05 -1.4559680114856237e-05 4.8229107255470891e-06  2.7788495950003422e-05 5.7893085167771779e-06 -1.2460273559941922e-05  -1.1164771484391928e-05 9.5943372719273511e-06 -8.0582936405490483e-05  2.1992121946279215e-05 -1.3676577635043836e-05 -3.8755331533950830e-05  -1.7132271280584281e-05 1.0805508861732449e-05 1.1125852459505752e-04  -3.1413727697151207e-05 1.7579565104780609e-06 -9.7058535067206144e-06  5.3775082207641892e-06 1.7744253226655216e-05 4.8012188862407911e-05  2.1924910992211340e-05 -1.7953401092046121e-06 7.2820547608958109e-05  -1.7472663370139915e-05 -9.8578802533403204e-06 -1.0452899438026654e-04  1.6167020590573147e-05 2.9457125492745603e-06 -1.2124663962689656e-04  -5.8837907653036687e-06 -9.5927672404514140e-06 9.3891760006508627e-05  5.3924108030284211e-06 -2.2603789092661307e-05 2.7711075187606825e-05  1.2876485246531558e-05 1.6974145707445560e-05 1.3521307595935875e-04  -4.4417302521516208e-06 -2.6088290419175340e-05 -7.1776387888372394e-05  1.2834382774800914e-05 -1.2061496862968792e-05 -1.3482161923262246e-04  -2.2237007102043391e-05 1.9696025889460944e-05 2.5622968939356216e-05  -3.1749781736610941e-05 -1.2530453067748657e-06 5.9533109171904238e-05  3.3955563667128688e-05 -6.0982197067295067e-06 -9.2624761509930214e-05  -4.9323351529540545e-06 -2.5360873182367136e-06 -1.5180448449254213e-04  5.9747836325489119e-06 1.5017990532649913e-05 -8.0591235605300407e-05  2.5986128912855120e-05 1.6741856276739683e-05 7.3844864990561931e-05  2.7384196146598273e-05 1.4652329064606350e-05 -2.0952830045101468e-05  -3.2004776802731183e-05 5.1356341950309216e-07 -1.1057048076423615e-04  3.2663417015709720e-05 -3.4893600071566213e-06 1.9187328606223024e-05  -8.4633064680739545e-06 2.3921356820205531e-05 1.0987412514067273e-04  -3.4167027097627920e-05 -1.0743314508849655e-05 -5.3986502470132614e-05  3.6903759831411076e-05 7.2050220674694563e-06 8.0559260648589408e-05  2.3982878814538870e-05 -1.1590329624135003e-05 4.0142780095183704e-05  -3.3461987326886457e-05 1.3307502108143879e-05 8.1553290715470817e-05  8.7373366814212589e-06 3.8052104394354866e-06 1.3770276505365600e-04  -1.2339116295513929e-05 -1.7493191247738288e-05 8.0209518965374625e-05  -1.0674255434302411e-05 -2.2414762782647005e-05 -2.7609267562140930e-05  1.3818871692137126e-05 -2.4259934322264267e-05 -5.2074383697933902e-05  -2.9645124729510437e-05 1.2681313689886137e-05 -3.8277621093602424e-05  1.2827132066022526e-05 -1.3994493485624420e-05 1.1740750349873188e-04  -7.0598224464542689e-06 2.1184419287302319e-05 -1.2267295112714210e-05  -2.3170809277367088e-05 1.9162165867233104e-06 1.4584687546509504e-04  3.5108633502268422e-05 4.0662107111782180e-06 -8.1643035361089048e-05  4.3290171725527250e-06 7.7383017929166623e-06 -6.5564470331866686e-05  1.4191207653262991e-05 1.2478363856928226e-05 6.3725260122494227e-05  </DataArray> 
</PointData> 
</Piece>
</UnstructuredGrid>
</VTKFile>