<?xml version="1.0"?>
<VTKFile type="UnstructuredGrid"  version="0.1"  >
<UnstructuredGrid>
<Piece  NumberOfPoints="201" NumberOfCells="657">
<Points>
<DataArray  type="Float64"  NumberOfComponents="3"  format="ascii">-23.28499779075437 -136.9204675794204 176.7043972037235  -17.57041189199548 139.2252944700911 -179.8399145422217  3252.827227836904 90.99177386159016 -180.4211428997139  5523.672268968932 35.68158646273626 -211.2274702696687  6736.67769468585 -14.72306735407341 -232.5596402633068  7332.229298558541 -38.02771522509718 -142.7402687455796  7515.481942163581 -46.90914890351804 26.9639836340808  7334.343130673997 -56.87487721475287 193.6157884344759  6737.578573605068 -80.39470369984764 280.1440501156569  5520.81325844455 -122.0416191152573 258.8882402876327  3255.929152486324 -141.1595630110357 207.5145494754315  3879.754989656027 -1362.20361762084 404.4867904339577  3939.196226384411 994.7255247868821 -257.4985573600627  7251.366647809795 -1147.538374352128 281.4600673188031  5914.426743446559 -1356.383595631841 747.560431201707  6871.937255134193 1085.348436152462 -147.1780053434639  6838.711877185939 1111.16230527012 -568.9494947873305  4240.430281783737 1317.153316245468 -733.6221955216816  1583.53060153968 -1455.859708519602 787.1322928703295  5961.769733744823 -1179.108309583788 227.4645015169207  4269.631256343664 -2313.651129743752 714.7216031452335  5780.128766960977 -2189.197818160103 579.9968212540568  4006.574652043902 -3070.605127281613 943.9043254713716  5321.909608217666 -2835.652976066337 844.3582659872942  3388.958670865699 -3529.142457840856 1140.455493843971  4710.002551889195 -3186.035371216529 1086.115152651056  2506.64240240224 -3734.862299113165 1335.117386638871  3706.457193035003 -3335.032107772211 1320.585944114137  1343.182410436294 -3702.988937366185 1485.028913359994  2538.471052548764 -3193.48955771748 1427.099447522454  -107.6879253629454 -3399.187537436663 1508.926294212091  5560.020217743066 -2654.266116995276 1024.850221087529  5978.219678467573 1098.742972876481 -180.2599319188946  5696.495709736512 2134.261805702886 -545.8321482653744  6454.893022255053 2002.170737535328 -517.2736088848619  1039.134486947873 -2768.006446512109 1332.248591227168  3708.347865892089 -2409.483837670653 1174.307227916966  4329.620190696072 2132.17770827403 -638.7966900555834  3847.682476965985 2989.35222595071 -918.0772848315371  7255.969291169904 -1126.873510969426 438.7161336058675  6425.163508466468 -2229.974000123255 721.3564530325946  6913.753493336911 -1168.280646402515 200.496473805713  1567.397931626702 1441.357538498653 -772.8631208797775  5891.330337877189 1164.804489014353 -670.7354791480068  5607.637430214109 2163.029626184344 -973.0228325775922  1708.913933725352 -3613.324777625034 1186.150013796754  -1202.48251679506 -3723.561797216931 1480.406721010425  1977.706295846727 -2439.587920602478 859.1846053186293  6395.524810141666 2039.150456858205 -766.0971530335277  4888.452048167164 2925.094557306761 -1113.427098864685  3710.48501904638 2963.330812460819 -1295.941698618079  2795.770590205262 3529.74367122634 -1367.699503601347  1300.850893169629 3444.082045477488 -1483.815703574895  344.4736673965221 3805.959851845178 -1467.005756313665  -1338.87567389505 3534.594364489103 -1498.97445602202  -2097.35045943022 3748.823658485486 -1405.741548845261  -3718.45213249826 3304.786033725952 -1333.784952789073  -420.8036728196524 3910.080694241951 -1359.206640198163  -2727.531505633468 -3227.729701990742 1403.847748322632  -3517.881634753753 -3417.272188400807 1300.864839963012  -4219.871232643868 3366.471701197562 -1182.852325022409  -5553.017235463793 2711.889062478431 -1036.988613225796  -5811.99403283128 2679.832995127095 -863.9012372368613  -6789.647960508009 1814.110119481975 -671.8336960719208  -6871.747850791869 1721.962951426967 -473.6967181259829  -6327.176723784874 1778.757500520992 -832.3876242474421  -5759.872112927861 2515.034543307245 -704.7671290871804  -7212.252223704232 804.9494404049349 -428.0969181925468  -6652.513944928338 1445.717507780524 -299.2457433731896  -6641.91299272848 580.1413810733001 -459.9976630766966  -7075.669781724318 -493.172785634772 -54.65622741574765  -5311.38573850871 2185.684132887855 -611.660111365324  -1431.72318029149 -2057.382002137388 1033.849586584447  -4888.718589266328 -2722.777016513588 1140.874533559459  -6236.149212204748 -690.2140380092485 17.15194270824513  -6306.207372264163 -1687.256599742709 377.2573092208758  -7326.10544589025 519.0446806847852 -36.3576702015802  -2959.840241446946 2924.760727264472 -1353.707501202814  -6014.171080367932 955.0945154129735 -141.8302939648299  1985.374886131904 2893.94309252123 -979.2501343769821  -7041.353925257202 -1356.102737760057 324.286053147616  -5439.655845695382 436.6691138968651 -383.4291425398627  -4307.782264717504 1743.248682045902 -534.5599353805857  -5003.073398062055 -1885.321809706241 518.5866745650267  -4838.660117503722 -2700.786401758064 776.5063551617149  -4090.617145165709 3091.196279509549 -950.2822628136055  -2011.511224489874 -3789.130802216231 1343.298420465318  -4712.34842549471 243.3380818240267 68.62644853524097  -6187.512944989195 -427.3616289665096 391.2694855519901  -3056.66597133669 -2816.004970051843 910.7153271649094  -2824.69140922994 -3415.306727218493 1085.662627030926  -2923.520611183907 -1876.116437694369 624.2329551897985  3981.287611486248 3378.962819644332 -1146.013285855321  -5299.009865669965 -2834.915966395896 1014.593781410641  -6405.792195767 -1950.986232925179 793.129818225043  1511.199661403792 3523.442656199381 -1152.741263417913  -595.4198663007603 3294.397032634551 -1117.020288162678  -220.1534917537323 2626.03366328662 -931.2387977523334  -2825.036733289551 1139.423224771904 -349.2963627680155  -4030.541050427342 -2397.693850195589 1149.728508735364  2130.77133896518 2902.689869532251 -1358.32832861751  -4425.347159307321 -3183.483561788043 979.023281795445  -723.2526844989598 2431.562093502527 -1202.450064187203  -1743.661874223154 1213.547583043782 -678.2628184091564  -937.8467898181209 3739.439674109502 -1235.010547839458  -2265.813847573269 -888.6429002408491 526.7454953184705  -637.0306212608481 -3414.389265170624 1147.360389231134  -4398.557075397903 -1211.949317226219 693.1406090669966  -5904.50524381631 -1704.125729073249 842.8278266062358  -6939.45803813941 -784.4850274406894 473.2888202203397  -7237.01730655274 -991.0703355645423 379.0729803093497  -7469.55293580305 -85.99130254214036 -38.63049712935999  -3649.58617398713 2064.371412682161 -1049.705129634086  -5056.579476889011 2139.109933313576 -1043.58413377268  -718.1253971738259 -3761.362627556666 1241.37037906629  -312.6241228456931 3198.144042753323 -1463.463533393203  3205.358466727213 3479.141268850558 -1105.340963719696  6865.404654962653 -1148.523354964631 596.8742722612559  502.5143482444692 -1305.048258765823 451.2285218251162  1250.45745752274 -3851.182275429515 1295.104354289362  -2808.275334552358 2786.168803682219 -932.5591184602924  7244.944550767798 1000.090936340051 -384.0610720258046  5040.424168476381 2885.400901567762 -847.0391746383652  5783.632441424584 2605.85033449703 -831.3621582394018  -5963.752143624915 -2387.913298020872 662.9724854438972  -2642.719886418884 3729.041010125973 -1257.558996510076  -4384.455140748129 3277.028183002722 -1033.294851512608  -535.0784493511011 -2712.396536218654 965.3963087556235  -2498.033440511115 -422.1724208601349 52.36364221509439  -4785.154395763516 -720.8713335892857 110.03154245725  1825.504572166781 3801.663610728937 -1341.86978553485  194.8779723785483 -3907.459282572056 1418.865006698821  4593.006976458852 -2702.60787551836 1205.622305790745  7253.924094278075 1009.311593665611 -224.3685270383808  4221.261671649759 -1365.12899530736 762.4981908475278  -6466.665760158516 -2131.619702768531 683.9243194071149  -1651.571014948006 -2930.434035773327 1374.287811012951  4370.560539964677 2152.926021914752 -1057.879134212517  -6918.520004588336 364.3195070080866 98.10769330957339  1990.885398064434 -3165.711885968326 1064.554639325723  2427.154861234396 2147.356568894798 -742.091229251101  1131.10717799352 3807.106147406223 -1263.673512021789  -5086.940883476455 2661.6228835409 -1148.351907670779  6507.531522842658 -2005.26172769615 529.6603158137881  -166.3577923368384 1184.835480327506 -402.5876255624306  6085.709532644676 -2016.119750943055 903.5997977782866  -7303.3019660545 1036.602788701927 -345.4451006508082  -4035.161367666896 -3384.182278291824 1135.930701490484  -2528.011295308641 -3682.948212142539 1210.862993232354  6809.626571019488 1761.805007824544 -537.4236886695082  -2220.615643347477 2233.301305596629 -777.9907894319047  2710.084897019942 2128.686153716792 -1073.821771796671  -3500.37644284099 512.7777849519741 -374.613967459239  -2988.972282688422 3534.771749088722 -1130.173919234351  6589.790904246741 -1886.52620269549 755.8822076384184  -565.9328064754636 -3900.723854950693 1329.734074459251  -5699.520105787165 1260.790237318443 -720.5241524954284  -4265.840485944822 1171.68372653769 -682.1888364353135  -2413.229660095029 3340.706151716329 -1087.519805388498  -5431.776308412561 -2817.187744905381 886.5175038259788  -16.13174136427232 1.773820298939734 -1.065774868111381  -3177.051697105035 -1830.509172768443 772.8020892202578  4736.102071086469 692.4333200905445 -287.1836723183949  -1969.947312656607 1959.572361813376 -802.5253517578554  3602.816926738985 -1440.850306709686 653.9910812718357  -2538.805621439154 300.6758881637754 -195.0987229273961  -4862.806300997388 404.5887245341374 -171.9672447579938  965.7597696509002 2223.544281771106 -987.1446133758251  3450.432028448679 -1101.754419818402 425.5058489984407  -2792.424477014019 -257.4803785445491 174.0654064409274  2582.088982078607 1615.066644550096 -634.4038250433995  -976.7758189594057 -1867.466647655817 746.4157424908201  804.8662168768042 -2631.171833423692 1106.564332241269  2129.575553283361 814.5872902304101 -424.4807664821478  -810.0731
[...]
<PointData  Vectors="Centrifugal"> 
<DataArray  type="Float64"  Name="Centrifugal"  NumberOfComponents="3" format="ascii">-5.6297379493909660e-07 -4.3425231644788202e-06 2.4208547387047745e-06  -4.2480920764382205e-07 4.4172777383098010e-06 -2.4625286590142480e-06  7.8645336589363779e-05 3.5335799265726817e-06 -1.9698878706757834e-06  1.3354876677273622e-04 2.8301486955504206e-06 -1.5777414699604914e-06  1.6287624508878231e-04 2.1197804881303393e-06 -1.1817278677245876e-06  1.7727521345146707e-04 7.6633382149023360e-07 -4.2721311848361040e-07  1.8170581023013241e-04 -1.1425097533647290e-06 6.3692237109376447e-07  1.7732632069650955e-04 -3.0399657872544485e-06 1.6947095738655522e-06  1.6289802611828849e-04 -4.3635398380108197e-06 2.4325710409062009e-06  1.3347964295236270e-04 -4.9131554552623427e-06 2.7389688472260677e-06  7.8720333473932487e-05 -4.7375266039059983e-06 2.6410598848658500e-06  9.3802903036035551e-05 -2.9285278779778977e-05 1.6325855550577486e-05  9.5240045479318800e-05 2.0995649580006241e-05 -1.1704581841659031e-05  1.7532015407074661e-04 -2.4060695127002610e-05 1.3413272792921451e-05  1.4299624584758637e-04 -3.2705663673387479e-05 1.8232639847231890e-05  1.6614648753122030e-04 2.1532805364383557e-05 -1.2004033583602425e-05  1.6534317987021440e-04 2.6345911353763624e-05 -1.4687227201909215e-05  1.0252314169676319e-04 3.1838732147380797e-05 -1.7749345869658467e-05  3.8285862861662543e-05 -3.4947422357145740e-05 1.9482367696008987e-05  1.4414088254248702e-04 -2.4087785048471436e-05 1.3428374788299480e-05  1.0322914921334757e-04 -5.0024932058003417e-05 2.7887725462608053e-05  1.3974925213282866e-04 -4.6344032780713686e-05 2.5835710511712249e-05  9.6869089567337105e-05 -6.6343686320191635e-05 3.6985047938288653e-05  1.2867064344969045e-04 -6.0986353137749737e-05 3.3998460433673416e-05  8.1936659001379639e-05 -7.6822559278653368e-05 4.2826773657861489e-05  1.1387624060083063e-04 -6.9935130814320707e-05 3.8987193947209493e-05  6.0604428590321461e-05 -8.2618749285361608e-05 4.6058013541381468e-05  8.9612989895607699e-05 -7.5094399194922123e-05 4.1863364973674887e-05  3.2474836617720178e-05 -8.3572341228692213e-05 4.6589618667563824e-05  6.1373966819261853e-05 -7.3578876254592533e-05 4.1018496506023665e-05  -2.6036283342386342e-06 -7.8214409904620128e-05 4.3602697713029008e-05  1.3442757049191638e-04 -5.9496596988725484e-05 3.3167956347390016e-05  1.4453860161853460e-04 2.2120042332168673e-05 -1.2331404409815558e-05  1.3772721115901779e-04 4.4979423544745491e-05 -2.5074972892073050e-05  1.5606338696358169e-04 4.2249324279074149e-05 -2.3553006630960900e-05  2.5123708012606710e-05 -6.4755450841029249e-05 3.6099643936909879e-05  8.9658701700388903e-05 -5.6518378710776663e-05 3.1507669560656276e-05  1.0467953363383222e-04 4.5896912003822399e-05 -2.5586451173186575e-05  9.3027468812481026e-05 6.4579391853540006e-05 -3.6001495183751632e-05  1.7543143463098117e-04 -2.5296551452068826e-05 1.4102233686755564e-05  1.5534460067252577e-04 -4.8549719428295826e-05 2.7065329046985638e-05  1.6715750099674021e-04 -2.3610762058093369e-05 1.3162445667604346e-05  3.7895814707695650e-05 3.4533201539089572e-05 -1.9251449312322739e-05  1.4243783174724248e-04 2.8381987896119382e-05 -1.5822292084520851e-05  1.3557883720235965e-04 4.9902739760694959e-05 -2.7819606124893822e-05  4.1317322472567127e-05 -7.8845179369494689e-05 4.3954336884597048e-05  -2.9073060341744762e-05 -8.3904281886259480e-05 4.6774667793015550e-05  4.7816058590729569e-05 -5.3833329889383664e-05 3.0010817864828090e-05  1.5462801007531333e-04 4.5490007771926142e-05 -2.5359611614553242e-05  1.1819070912804931e-04 6.5402880424261905e-05 -3.6460570733424673e-05  8.9710372790609749e-05 6.7984903462626670e-05 -3.7899987973383088e-05  6.7594834798388962e-05 7.9170339163153416e-05 -4.4135605837576568e-05  3.1451364975794400e-05 7.8784290151039327e-05 -4.3920392574468674e-05  8.3285233493902567e-06 8.5286327608413809e-05 -4.7545125844443224e-05  -3.2370710354268737e-05 8.0609676744952625e-05 -4.4938002756030941e-05  -5.0708759265223674e-05 8.3602478320745442e-05 -4.6606419389020928e-05  -8.9902997936423270e-05 7.4672227816694457e-05 -4.1628014339304479e-05  -1.0173994549642729e-05 8.6098381992000871e-05 -4.7997827103166191e-05  -6.5944982101395953e-05 -7.3971349675584834e-05 4.1237291226290647e-05  -8.5053698173428454e-05 -7.6408542730684604e-05 4.2595969149954673e-05  -1.0202607461440321e-04 7.4258028553498344e-05 -4.1397107971946945e-05  -1.3425825565903233e-04 6.0684276646513562e-05 -3.3830059879994829e-05  -1.4051967563962725e-04 5.8313185751092746e-05 -3.2508232358835590e-05  -1.6415693542153710e-04 4.0369819076559039e-05 -2.2505226595347594e-05  -1.6614190820154462e-04 3.6632760458342541e-05 -2.0421904130028593e-05  -1.5297552198410177e-04 4.1368668621849423e-05 -2.3062061772359126e-05  -1.3925949621804330e-04 5.3637119702545404e-05 -2.9901435291011434e-05  -1.7437446380384462e-04 1.9249419698795159e-05 -1.0731099669502370e-05  -1.6084137327891226e-04 2.9743538829458601e-05 -1.6581324772227394e-05  -1.6058506841070731e-04 1.5430828727972422e-05 -8.6023248312912597e-06  -1.7107223734995109e-04 -8.5346294425676580e-06 4.7578555937556330e-06  -1.2841620224592759e-04 4.6604807624142154e-05 -2.5981086366149225e-05  -3.4615533974023885e-05 -4.8579519211982372e-05 2.7081941726945564e-05  -1.1819715343418426e-04 -6.1953338180330169e-05 3.4537531898331503e-05  -1.5077470134848783e-04 -1.2907469057394612e-05 7.1956110419572242e-06  -1.5246853480252193e-04 -3.5000935572295949e-05 1.9512200057420353e-05  -1.7712715380347870e-04 9.9477123614534827e-06 -5.5456161538718870e-06  -7.1561634152371987e-05 6.7867463092182839e-05 -3.7834517723361392e-05  -1.4540781781271700e-04 1.9075263397767389e-05 -1.0634011619387385e-05  4.8001466182925708e-05 6.3448580589845846e-05 -3.5371094446068239e-05  -1.7024256460892382e-04 -2.8348064048918618e-05 1.5803380335949713e-05  -1.3151745695374610e-04 1.1997127545833213e-05 -6.6881170163340828e-06  -1.0415154646491607e-04 3.7651219374989951e-05 -2.0989671071310546e-05  -1.2096197056046373e-04 -4.0107530411244576e-05 2.2359006820740757e-05  -1.1698686309744889e-04 -5.7801015841156733e-05 3.2222709655437629e-05  -9.8901029690935143e-05 6.6789075825279039e-05 -3.7233342133419117e-05  -4.8633378357598175e-05 -8.3703863281503420e-05 4.6662939124987508e-05  -1.1393295803658071e-04 3.7827392234445194e-06 -2.1087883305417240e-06  -1.4959879640866073e-04 -1.1906069794150361e-05 6.6373544570320776e-06  -7.3902641400627636e-05 -6.1306274973482486e-05 3.4176809348051970e-05  -6.8294068845365397e-05 -7.4159421724766063e-05 4.1342136979377878e-05  -7.0683515104918599e-05 -4.1024068892773043e-05 2.2869955511668439e-05  9.6257711317983014e-05 7.4109622927427758e-05 -4.1314375318713741e-05  -1.2811698417597867e-04 -6.2723245938935967e-05 3.4966737402871400e-05  -1.5487625012676365e-04 -4.4141775395773668e-05 2.4608003709872052e-05  3.6537079193064608e-05 7.6843756932191387e-05 -4.2838590852168528e-05  -1.4395783273234804e-05 7.2251667089741136e-05 -4.0278608548196572e-05  -5.3227682405406155e-06 5.8013263541703673e-05 -3.2341032766722591e-05  -6.8302417929100409e-05 2.4608552784629600e-05 -1.3718690578012521e-05  -9.7448537947370927e-05 -5.6048174137806777e-05 3.1245541547627715e-05  5.1516793672230096e-05 6.7507877606598588e-05 -3.7634057255155504e-05  -1.0699397554537432e-04 -6.8786864755768839e-05 3.8347062571083003e-05  -1.7486465412245901e-05 5.7215000796185946e-05 -3.1896020022513122e-05  -4.2157441939365227e-05 2.9358463134311615e-05 -1.6366654110483553e-05  -2.2674821405607855e-05 8.1673807337643301e-05 -4.5531230584724798e-05  -5.4781788336707616e-05 -2.1807535344882312e-05 1.2157189099408303e-05  -1.5401828660942010e-05 -7.4776920871070116e-05 4.1686378259816909e-05  -1.0634625741626991e-04 -2.9481967294902662e-05 1.6435504781186313e-05  -1.4275636846608448e-04 -4.0099428402208961e-05 2.2354490140869694e-05  -1.6777897346861590e-04 -1.9336647019790223e-05 1.0779726853601878e-05  -1.7497322240363027e-04 -2.2178346905313476e-05 1.2363907840848571e-05  -1.8059536017808939e-04 -1.1888950623405748e-06 6.6278109211543180e-07  -8.8237988974278816e-05 4.8871478305571718e-05 -2.7244702068906441e-05  -1.2225561552965002e-04 5.0187100794695113e-05 -2.7978130726971690e-05  -1.7362500255404803e-05 -8.2143575933010297e-05 4.5793115550472592e-05  -7.5584799453071809e-06 7.4038651255966010e-05 -4.1274810277684784e-05  7.7497659066560055e-05 7.5539206461063994e-05 -4.2111334584259235e-05  1.6598854537711556e-04 -2.7322184593797991e-05 1.5231476618640079e-05  1.2149557074677947e-05 -2.8711672658472244e-05 1.6006083601339748e-05  3.0232976038802059e-05 -8.4352844980371936e-05 4.7024731189538830e-05  -6.7897168663441819e-05 6.0980556430201485e-05 -3.3995228905272635e-05  1.7516488360966781e-04 2.2396024458261117e-05 -1.2485257967400196e-05  1.2186502003261807e-04 6.1931528069303834e-05 -3.4525373273350156e-05  1.3983396233665775e-04 5.6613973824785468e-05 -3.1560961592956353e-05  -1.4418881232213963e-04 -5.0862586175223834e-05 2.8354697971967562e-05  -6.3894446406558293e-05 8.1713862210769736e-05 -4.5553560236345083e-05  -1.0600530743048496e-04 7.1070369430882840e-05 -3.9620062830200281e-05  -1.2936876693237664e-05 -5.9957472228071861e-05 3.3424883475896719e-05  -6.0396285132895291e-05 -8.3254743865165184e-06 4.6412565591880960e-06  -1.1569322676173954e-04 -1.4428003922254350e-05 8.0432735398965263e-06  4.4136196443163201e-05 8.3920342512973587e-05 -4.6783621215441761e-05  4.7116685449523543e-06 -8.6663480965338784e-05 4.8312856517086688e-05  1.1104757625295332e-04 -6.2247099708986201e-05 3.4701297055536289e-05  1.7538198681630099e-04 2.0924024387813209e-05 -1.1664652478161541e-05  1.0205969199890187e-04 -3.3020574921048830e-05 1.8408195476366705e-05  -1.5634802271892459e-04 -4.6350655059142585e-05 2.5839402276501621e-05  -3.9930912180109109e-05 -6.8183730023383250e-05 3.8010829114249232e-05  1.0566937026602751e-04 5.0588932326521396e-05 -2.8202142374379740e-05  -1.6727274347827072e-04 5.7111116361429602e-06 -3.1838106888458934e-06  4.8134696765234312e-05 -6.9338560028663030e-05 3.8654619736610994e-05  5.8682615966426748e-05 4.7239038928235363e-05 -2.6334655431827040e-05  2.7347380755633024e-05 8.3216659183579558e-05 -4.6391334275801331e-05  -1.2298967942949771e-04 6.0902229014156631e-05 -3.3951563209288838e-05  1.5733605603153702e-04 -4.2433707301451524e-05 2.3655795838191849e-05  -4.0221209600776770e-06 2.5994168609236479e-05 -1.4491138877761874e-05  1.4713744108020509e-04 -4.6479106540189614e-05 2.5911010962237584e-05  -1.7657582192463051e-04 2.2672413099519987e-05 -1.2639338147648592e-05  -9.7560245818402439e-05 -7.4102220050568970e-05 4.1310248388621434e-05  -6.1121075696809321e-05 -8.0383511000158020e-05 4.4811920661755107e-05  1.6463996892999329e-04 3.8022940774084905e-05 -2.1196897026450598e-05  -5.3689007277156756e-05 4.9193448063662793e-05 -2.7424192651931971e-05  6.5523166151562766e-05 5.0305758319407302e-05 -2.8044279511929662e-05  -8.4630465823963747e-05 1.3310319125749238e-05 -7.4201904995732711e-06  -7.2265975031397093e-05 7.6820669660420350e-05 -4.2825720240049009e-05  1.5932488491331517e-04 -4.2569793204776796e-05 2.3731660535156638e-05  -1.3682858920799026e-05 -8.5622735059929348e-05 4.7732665102678691e-05  -1.3780033359335640e-04 3.0664423076975488e-05 -1.7094696125691988e-05  -1.0313749773816369e-04 2.8626648313063326e-05 -1.5958684524422414e-05  -5.8345938960864381e-05 7.2802499939456775e-05 -4.0585684933044979e-05  -1.3132694918362159e-04 -6.1079271574517800e-05 3.4050260281237340e-05  -3.9002570395022118e-07 4.3677460883585346e-08 -2.4349159267478552e-08  -7.6813271219077265e-05 -4.1710533487072029e-05 2.3252643410642785e-05  1.1450726257904258e-04 1.5725069333833718e-05 -8.7663570627932412e-06  -4.7628465521120382e-05 4.4396759615994454e-05 -2.4750151427785382e-05  8.7107223970719973e-05 -3.3301515639347090e-05 1.8564813332720557e-05  -6.1382055869541581e-05 7.5521601623300460e-06 -4.2101520300417983e-06  -1.1757065823786019e-04 9.2309929075834515e-06 -5.1460618808133544e-06  2.3349688387590484e-05 5.1164152103753089e-05 -2.8522813898920691e-05  8.3422933113026044e-05 -2.4697388212193580e-05 1.3768214243779580e-05  -6.7513934037371159e-05 -6.5391325267165088e-06 3.6454129004559863e-06  6.2428540735715379e-05 3.6313551182421058e-05 -2.0243952451019938e-05  -2.3616029279703742e-05 -4.2120895717116767e-05 2.3481410722079432e-05  1.9459679258088806e-05 -5.9910864232438855e-05 3.3398900612290434e-05  5.1487882524834783e-05 1.9390007328592650e-05 -1.0809473973313196e-05  -1.9585569829965108e-05 -4.9846547636676828e-05 2.7788280334666819e-05  4.6145353986912190e-05 -9.0108008240820951e-06 5.0233099624978269e-06  -7.9588804196102287e-05 4.7345861023053130e-05 -2.6394206242414292e-05  -1.1650470690259989e-04 -2.0069661101474525e-05 1.1188364999207681e-05  1.1969600612726128e-04 1.9811048822632592e-07 -1.1044194723767481e-07  -1.8110025841092508e-05 2.8812839535276257e-05 -1.6062481760620515e-05  2.3845993565010111e-05 6.1868011909708731e-05 -3.4489964505194863e-05  9.9483919181189817e-05 3.8489814529721100e-05 -2.1457168186994772e-05  9.5456386478217229e-05 5.0387497491608148e-05 -2.8089847181891433e-05  -1.1471743237331988e-04 2.3949901829352583e-05 -1.3351508129965413e-05  1.3413435963916803e-04 -2.0146346948346317e-05 1.1231115558907529e-05  -3.0029838187375525e-05 4.6419653347116951e-05 -2.5877867202554646e-05  -1.3042991580979404e-04 -2.1969001407093838e-05 1.2247202639242039e-05  1.3069171991649014e-04 4.3579692140474507e-06 -2.4294655487974512e-06  9.4105648592061048e-05 -5.0855183136330862e-05 2.8350570951545175e-05  -1.2394774773323580e-04 2.2045187146255222e-05 -1.2289674400631647e-05  3.2831160452757442e-05 -2.0471706944187713e-05 1.1412496119904975e-05  -4.5012563515314552e-05 -6.2523995120943639e-05 3.4855659748554451e-05  -4.2729094838580745e-05 -6.6195539700255175e-05 3.6902459674896143e-05  5.1259206171850844e-05 -6.1280306936791572e-05 3.4162332777105421e-05  -1.0762344395853794e-04 4.9795841704333077e-05 -2.7760012967529047e-05  4.4373237325928634e-05 -5.7948716358899928e-05 3.2305049227328136e-05  -3.0671794497834545e-05 6.7220546511031983e-05 -3.7473876913466387e-05  -8.1383129259829690e-05 -2.5090308810198613e-05 1.3987258254735202e-05  1.2570205209797442e-04 3.0951511978570205e-05 -1.7254741449926586e-05  1.8069907965881960e-05 3.3921828470695037e-05 -1.8910623176530178e-05  5.5117861141996979e-05 1.9115490533603909e-05 -1.0656437303425401e-05  </DataArray> 
</PointData> 
</Piece>
</UnstructuredGrid>
</VTKFile>