<?xml version="1.0"?>
<VTKFile type="UnstructuredGrid"  version="0.1"  >
<UnstructuredGrid>
<Piece  NumberOfPoints="201" NumberOfCells="657">
<Points>
<DataArray  type="Float64"  NumberOfComponents="3"  format="ascii">-92.66159887243175 -58.75998471352767 187.3275766273634  52.41501473205268 69.02323533515927 -185.195324243323  3246.526857961381 -378.9470478016332 -500.978755027107  5405.934385560106 -646.7486095253727 -728.4008509480072  6568.466578439957 -750.3563592013718 -818.3811002368998  7160.628491977763 -778.5356960323892 -740.0291451935448  7348.603575786865 -784.7928048364554 -573.0513455271187  7168.834996472021 -789.1182241418896 -408.8399711049403  6571.792896077206 -783.8064230969429 -300.7473319406282  5373.412490378073 -723.9441551329962 -236.2579357401152  3147.402220887227 -487.4935962584927 -89.52131003846389  4147.554514528955 -1831.824985663686 -306.1512696576328  3546.208426098928 512.8577381120193 -350.1141913069775  7234.879875530665 -1883.233068934821 -477.2452964011985  6000.758716477647 -1985.012444441106 -10.39135936914792  6531.567272868669 357.3853340089212 -533.8382765383088  6508.136741745519 369.2064409721979 -939.3298760520358  3909.637666082268 704.1892373356367 -841.0605925259588  1856.248344223902 -1537.562661260105 316.7073136806048  6025.511607690347 -1854.110402745678 -555.5582671525542  4670.891967356249 -2797.628723441313 -194.2188497189019  6015.566656243191 -2831.329149407691 -336.4842857942  4534.794474665885 -3526.512421030909 -26.37665972262537  5688.389887948443 -3436.522948295136 -105.0289236681747  4030.61545742828 -3917.426681387016 180.5402464027936  5179.022753020064 -3724.850755842934 134.6993445757558  3246.22418722412 -4008.57967483125 411.6604487586186  4286.528493721235 -3750.603254627454 382.3080220465774  2148.042684933634 -3806.771282090099 627.7357773158305  3184.731316490876 -3437.532737305102 547.1743424492635  688.5973525128155 -3285.571913329201 790.1929543934889  5884.004325428334 -3269.895385324848 110.6316592037945  5598.373421041687 422.3893913749905 -474.4307398820671  5153.682934558287 1453.180725381735 -629.9584938246785  5983.692632932186 1280.847798504623 -713.773018405969  1661.275702281902 -2778.121388022353 622.0755413135005  4130.281390498742 -2781.421507122325 344.1166140701667  3715.752397081282 1567.128287945553 -546.8652392446  3086.757917022582 2453.018237987104 -639.4054073224315  7242.366437069757 -1859.255339278189 -312.7589874746502  6617.301371718272 -2918.883194921587 -159.71386642813  6908.021213147939 -1897.838749890509 -580.1912812970193  1250.506545137062 1108.702838440234 -594.5613631671125  5552.985829572651 443.6837060066776 -958.1123972878693  5105.992928276273 1466.487645526602 -1034.881639804864  2511.649300250403 -3775.750088635793 282.7122100329028  -326.3386929176116 -3485.624361774798 826.6642299554575  2596.94337274525 -2639.528317206998 67.4698077851104  5930.429941346057 1315.09174291354 -938.1392953839722  4243.254162781049 2285.043123078739 -977.1511259001414  3021.160028774991 2414.747242960154 -1006.649087999654  1973.62453558878 3095.705350262132 -906.3904507291273  480.0700031856944 3181.678832596573 -870.4118482280539  -538.213750979922 3689.789100399846 -734.3547307571436  -2120.351912402703 3632.360727063892 -655.1916015856409  -2869.361711862322 3969.648897613692 -502.4509316764353  -4294.701471313212 3720.179395007314 -395.473842199262  -1314.576396754677 3906.518281045973 -553.191170548012  -1968.391800550935 -2788.105846346733 967.1788112829241  -2739.982221484313 -2909.075888877309 937.8671009164598  -4757.617266264387 3851.442967779399 -226.8234345262736  -5882.148109131707 3325.393689699906 -113.6070265707062  -6112.250282768939 3321.19848392223 62.14990103280454  -6898.462339427974 2525.608264523454 161.9981579759941  -6959.131919533902 2438.852322663879 357.9143707467333  -6462.962954493314 2450.125018323749 -0.1611978898412263  -6037.943573109773 3153.156396964813 230.5875623046587  -7162.451382760069 1529.902790408999 281.139083659188  -6708.315005066131 2156.028712710045 521.9102787538826  -6564.607256477283 1272.690251522754 202.1911791771905  -6824.227908612814 236.7713092571903 444.178438700339  -5585.921092652942 2786.263660510791 311.6879646987189  -954.6274779133751 -1732.068798712309 700.6590621509479  -4264.565400307672 -2082.625009130863 1028.234698643489  -5928.158424096603 -3.421246235497839 413.0796950195326  -5841.523894246215 -973.0010657582552 599.1530830916914  -7225.264979820791 1254.85339641803 633.4411211986994  -3525.7822066995 3217.659636609658 -487.5853497000364  -6034.118942856171 1639.092414907321 603.5704421810826  1170.694516127603 2570.891823942289 -481.5127582048028  -6668.933602553656 -614.1568117966123 669.8983492614636  -5353.663700964848 1025.677904978555 167.5075922312302  -4615.784541684179 2242.772502828413 284.8232457314418  -4444.576100549617 -1267.358071338082 549.5797767308426  -4163.770771753924 -2082.740123982801 666.719013288482  -4611.906135892969 3556.41004767612 25.98615800170806  -1122.674607108302 -3457.074789739888 773.0784366363125  -4692.237615782584 850.8326682809767 588.0058740463001  -5962.706978688534 302.1161656400515 860.1193403294322  -2286.201191906653 -2373.12640265957 555.4843255555996  -1974.731499155864 -2990.236323729574 634.9811735557155  -2317.931544413801 -1472.544579726689 416.9019010230226  3211.800414915428 2822.62803983307 -848.4616515346517  -4666.531541660534 -2172.292942540668 942.355715597295  -5936.117697523593 -1217.505185121321 970.5735223385101  611.7731577890137 3256.578080324742 -536.6190582281522  -1431.181833207987 3306.48716757195 -316.0907897446156  -957.3558211866902 2592.127465433904 -257.8821015125022  -3120.791807193211 1494.446009842589 232.2348591284709  -3454.139385043978 -1810.931571608543 997.6423031438386  1432.014720482074 2511.918354572901 -908.2776409922817  -3687.494483165004 -2596.843533148052 761.3266206626741  -1272.783194561543 2391.876776261888 -586.4378639577862  -1940.878957742634 1321.41656590792 -254.3990270641594  -1807.022057983004 3804.389997874148 -381.5328960409034  -2082.776547908658 -489.2593701890215 553.2735844182558  248.3231795623279 -3256.977876945707 442.6627101526498  -4075.753890609194 -588.6405927496473 836.4001470049268  -5463.679175379879 -981.7655037524729 1015.183841184508  -6648.52350143697 -39.58362969209612 906.8319335998658  -6923.669671777667 -247.5682713618102 791.8044532062495  -7286.086475673453 651.5448866464699 536.3929179559595  -3995.402411756237 2421.79619254822 -286.1559072938522  -5334.806294655113 2680.543374517353 -191.9429048863196  199.854074159264 -3597.84669403667 527.9699200327724  -1056.95106800783 3134.977188161955 -740.965236819654  2368.335830986911 3008.467097995732 -700.4232089810987  6871.08309714834 -1860.888486629457 -157.420910774425  943.4595588820281 -1357.516369786025 33.81993421814665  2098.443913812285 -3956.521802972536 425.293857700411  -3416.999634330077 3090.398574514873 -31.03742172771861  6935.925353512271 258.1121598694291 -800.7554444563601  4380.385130462744 2241.592025484439 -746.3916088741418  5215.021145507731 1912.338213674854 -858.7399178518485  -5398.144284700015 -1684.975371472781 737.6832541619129  -3374.964558178691 4026.27052939006 -320.8782718657761  -4896.122452403825 3782.574832126862 -63.1524402420298  242.3346215951743 -2576.290652421735 344.4446527772341  -2242.69202667946 -142.2368244561093 137.4100967854005  -4451.174551816044 -161.4998680153167 351.2214388233064  926.8085637977197 3493.297404560767 -750.9007689572709  1082.925675307208 -3866.238084928867 631.7120965349014  5006.624217529885 -3203.482955123355 299.5325126687905  6942.092849015623 269.0819729102913 -646.1519717964687  4382.816938249991 -1797.670601126767 104.437534328055  -5968.454968944309 -1398.88565304474 847.1610279284617  -950.0536180733443 -2597.34857699348 873.3070420237378  3855.96551280254 1528.306621334222 -988.5482881756109  -6798.762253931799 1100.212404946082 747.8848686928645  2723.13840671617 -3358.488638613078 168.0920178084755  1757.199863446574 1788.637328187267 -422.2140604644941  211.8440959407356 3593.690175388611 -596.890461776492  -5446.957817690618 3222.629904876414 -231.8319500700264  6656.836771150099 -2703.602903876182 -345.3426257750741  -581.7776958547321 1201.077453378882 -45.19302362486908  6278.355090124212 -2667.828927901928 46.06748496105113  -7281.557175635233 1766.202411382764 392.2278933267621  -3268.959165983955 -2830.688189194231 846.4410815376618  -1652.264828342602 -3290.930653850244 707.9335255075097  6391.650640752038 1027.534598599272 -802.5539821410448  -2781.139745020473 2471.738334808932 -9.50931346884707  2199.958831695263 1655.91750133157 -841.6284176630543  -3476.84182532738 870.6579600373661 32.88246742895009  -3671.737140943166 3872.230971457784 -173.07463270497  6726.253536747569 -2582.013130807277 -86.17164422031804  352.5299233155499 -3759.568241613893 602.8648044453258  -5777.737828503676 1865.806230591572 15.32692911661001  -4381.181787405462 1608.136826172902 -59.94503504438298  -3131.114935602533 3598.279270133236 -156.3138420203912  -4797.418299855821 -2148.155990858998 838.4040461799709  -14.98728593014588 5.878182161992974 0.8662871580599719  -2660.206733358125 -1354.239576292947 631.3453936699387  4468.988061922099 93.52478198329717 -556.016647612235  -2442.326829215986 2141.851314956312 -141.5427506130442  3846.596000399455 -1824.49804706951 -3.133278219562847  -2523.008555334209 579.428506849701 95.55952694892213  -4826.711801428712 974.0667306088837 358.1442298039486  378.8957606839714 1989.749749999795 -541.9776801500611  3658.854245166138 -1503.751906666582 -166.067878553323  -2707.377137325814 138.0884824678523 385.263559173939  2088.657812528679 1229.768616486693 -466.4320706650847  -429.3742829842344 -1673.476269215023 363.4300282782374  1463.063837139949 -2636.704039966784 410.9462297690154  1931.335707928015 463.9513370391332 -438.2530845790008  -264.9728211
[...]
<PointData  Vectors="Centrifugal"> 
<DataArray  type="Float64"  Name="Centrifugal"  NumberOfComponents="3" format="ascii">-3.1732431176138617e-06 -2.8945959191563969e-06 1.4681271760988958e-06  2.0543106165696271e-06 3.1869307602508985e-06 -1.3900278011118416e-06  9.0948699886597513e-05 -9.6003508482155919e-06 -1.1089053275331539e-05  1.5105501524359288e-04 -1.7250168004926085e-05 -1.7980661045829123e-05  1.8323615315839624e-04 -2.0615658713083413e-05 -2.1914933100496057e-05  1.9911770475679750e-04 -2.2731394295228903e-05 -2.3704236744776329e-05  2.0360766696193183e-04 -2.4502027631451242e-05 -2.3817564986255764e-05  1.9807801994596775e-04 -2.5726652783685112e-05 -2.2537945375789656e-05  1.8137395167895832e-04 -2.5709738957654464e-05 -1.9916622070522315e-05  1.4837006347279854e-04 -2.3187883088957947e-05 -1.5570518256002758e-05  8.6799209848574261e-05 -1.5577468520163828e-05 -8.4353964573336741e-06  1.1664268088430841e-04 -4.8868722052613670e-05 -1.9831716663981273e-06  9.7387446097951027e-05 1.1182252858380085e-05 -1.9059468703464287e-05  2.0155525781155701e-04 -5.2741678393870507e-05 -1.4040423831463192e-05  1.6623386731026582e-04 -5.7538220467660672e-05 -6.8797251321236233e-06  1.7970261093315287e-04 4.9298428775079074e-06 -2.9911617204582085e-05  1.8061208536963370e-04 8.5858322299767085e-06 -3.1278637287806410e-05  1.0894374850685469e-04 1.9550780230392221e-05 -2.3678588225934771e-05  5.1380664189673895e-05 -4.3629928576976811e-05 6.5264416304444224e-06  1.6884210506263185e-04 -4.9805739066265153e-05 -9.8786740909808317e-06  1.3172849177702268e-04 -7.4730514342509553e-05 4.3026217789072859e-06  1.6898773496844480e-04 -7.6145411261548888e-05 -1.0833050130282673e-06  1.2831109843345159e-04 -9.4246958313964010e-05 1.1373982185361548e-05  1.5995492540973004e-04 -9.2829478120884655e-05 5.9229178292169834e-06  1.1426970696122082e-04 -1.0511697402621892e-04 1.7221396809310874e-05  1.4551309529978350e-04 -1.0138450603445679e-04 1.1058272031241457e-05  9.2107046374344663e-05 -1.0829195962399960e-04 2.1769789936794993e-05  1.2025462320037755e-04 -1.0291199738037906e-04 1.5541966366759132e-05  6.1067625496624822e-05 -1.0357723115557001e-04 2.5072796483736841e-05  8.9170439013827179e-05 -9.4976590906079635e-05 1.7773760304904034e-05  1.9971539612340856e-05 -8.9930764309691628e-05 2.6967115791046887e-05  1.6424227471109081e-04 -9.0665623900504231e-05 4.5242247413076242e-06  1.5394289558879595e-04 7.2802523148317101e-06 -2.6647378533110667e-05  1.4108587372016669e-04 3.5031300980699731e-05 -3.3916190299247570e-05  1.6426460243344234e-04 3.0317660989627542e-05 -3.5983339812001038e-05  4.6488093086712959e-05 -7.7055944036279786e-05 1.8486589931870890e-05  1.1489006099587914e-04 -7.8044592279584793e-05 8.0602601331671440e-06  1.0140827081640991e-04 3.9068673967135491e-05 -2.9027917231155766e-05  8.3469750972315661e-05 6.2899722124979817e-05 -3.4185202063823639e-05  2.0109415993581434e-04 -5.3499149415331592e-05 -1.3714314611492177e-05  1.8482745573042089e-04 -8.0573311670723886e-05 -2.0919392852433571e-06  1.9305817778891374e-04 -5.1841596965222887e-05 -1.3005458766163548e-05  3.4960705873462116e-05 3.1124239705486907e-05 -1.5918237961252322e-05  1.5454292096266786e-04 1.1844486509944114e-05 -2.8269804463286035e-05  1.4132972069468475e-04 3.8751276460430309e-05 -3.5199951605758697e-05  7.2273022467025613e-05 -1.0043486763784110e-04 2.2258532492158954e-05  -7.5865173357788155e-06 -9.3946488320743919e-05 3.2645493805033583e-05  7.3961992756889003e-05 -7.0228732074735989e-05 1.1880187589109761e-05  1.6363320130400604e-04 3.3088698065936834e-05 -3.6811758593714785e-05  1.1652482571811094e-04 5.9958624494657678e-05 -3.8398997638067915e-05  8.3146567479005864e-05 6.5037528916097505e-05 -3.4850093595061226e-05  5.3316204262682881e-05 8.2676990627773706e-05 -3.6064308759853614e-05  1.2339621224423665e-05 8.6470051808850671e-05 -3.0889956710290574e-05  -1.6607990386272970e-05 9.9434810303777809e-05 -3.0677952717145692e-05  -5.9981501448681922e-05 9.9384537805924112e-05 -2.3839933263012731e-05  -8.1430243060595222e-05 1.0757253740163992e-04 -2.3208034857316573e-05  -1.2038743989839841e-04 1.0226618226202883e-04 -1.5304866025443345e-05  -3.8756561119253356e-05 1.0439556798979503e-04 -2.8855544923452133e-05  -5.3805041657148451e-05 -7.5453855986579209e-05 3.3722949594002836e-05  -7.4575876815741456e-05 -7.7256657624284706e-05 3.7593061439756085e-05  -1.3383022473689591e-04 1.0477754379334181e-04 -1.4031549847976464e-05  -1.6425183410918114e-04 9.2082132207404546e-05 -4.9969548800733611e-06  -1.7119868781686310e-04 9.0830981692703876e-05 -3.4855760726321408e-06  -1.9199535267870222e-04 7.1035908877263259e-05 6.4122391861050751e-06  -1.9429320066386885e-04 6.7326064799460650e-05 8.0156335972811325e-06  -1.7939721339075115e-04 6.9908222537339924e-05 4.8085159381714833e-06  -1.6960504394282377e-04 8.5130016889109611e-05 -1.8275736449663108e-06  -1.9836787350106428e-04 4.5380062956740809e-05 1.6003754742499603e-05  -1.8772109240528594e-04 5.8549624801272099e-05 9.9203315302059962e-06  -1.8142911560193369e-04 3.8793471253756510e-05 1.5544988354414867e-05  -1.8810431892192142e-04 1.1113104325405125e-05 2.5861896026022187e-05  -1.5711818643483828e-04 7.4661949419768317e-05 -2.8672525713674751e-07  -2.6496914156401888e-05 -4.8040210514120798e-05 2.0250475465937971e-05  -1.1756426099793560e-04 -5.5264396821733084e-05 3.6990882929117788e-05  -1.6323991912934878e-04 4.1763549521366006e-06 2.4273923250461697e-05  -1.6034332649471529e-04 -2.1825158033212193e-05 3.2523446295339667e-05  -2.0108414817834140e-04 3.5658041056938065e-05 1.9685773498695845e-05  -9.8416279862875524e-05 8.9403073100881574e-05 -1.4453740989340711e-05  -1.6898436605351379e-04 4.4020059701451379e-05 1.1838037367136690e-05  3.0460718880601697e-05 6.7038983063086262e-05 -2.7234456463053459e-05  -1.8364154867752292e-04 -1.2321206036518531e-05 3.3005637195224861e-05  -1.4795597381061975e-04 3.1308286122372491e-05 1.2786762229066430e-05  -1.2985886070823442e-04 5.9973980498664773e-05 3.4369557296490930e-07  -1.2167960576605875e-04 -3.0617852796516437e-05 2.9386659162597111e-05  -1.1342153382516491e-04 -5.2429701736522286e-05 3.5390342877150837e-05  -1.3045090282608342e-04 9.5100939629602323e-05 -1.1323368031610826e-05  -2.9131549089636297e-05 -9.1761166447174462e-05 3.5302174810890469e-05  -1.3131572922607163e-04 2.2609215059274859e-05 1.3082179904289653e-05  -1.6630032138507272e-04 8.2282631187615791e-06 2.3398680866837677e-05  -6.1419372310941926e-05 -6.1236930899327574e-05 3.0160735385705051e-05  -5.2435948038603068e-05 -7.7797468094015874e-05 3.4292256442280500e-05  -6.2912872040524084e-05 -3.7429837504473253e-05 2.2425224013628193e-05  8.7208448201980313e-05 7.3741462825137411e-05 -3.8402884568594963e-05  -1.2807830931998364e-04 -5.6293508958482792e-05 3.8988924658984139e-05  -1.6403935505765983e-04 -3.0895599288871269e-05 3.6141404251743664e-05  1.4547095048437765e-05 8.5441844428753495e-05 -3.0892883751224146e-05  -4.2075859578397704e-05 8.7523030778509294e-05 -2.2684766368097060e-05  -2.8457595721020099e-05 6.8484096682873747e-05 -1.8452405362588638e-05  -8.7923903782403292e-05 3.9672782923139150e-05 5.4539073466124850e-07  -9.5698025865802953e-05 -4.9232818785508828e-05 3.1532747535830758e-05  3.9308322070121465e-05 6.8723168077000396e-05 -2.9189734813435398e-05  -1.0013534903789405e-04 -6.6738855989286096e-05 3.8091443398790129e-05  -3.5533300624032809e-05 6.6556856726989784e-05 -1.6694414298144748e-05  -5.3649630727974393e-05 3.7796692737296978e-05 -4.2166979284945621e-06  -5.2714865368331867e-05 1.0105603431181770e-04 -2.5542330879711861e-05  -5.8295877746726176e-05 -1.4146370485374987e-05 1.3904043394871314e-05  9.2691891937652233e-06 -8.5790989057348964e-05 2.7264276743711658e-05  -1.1360467626627930e-04 -1.6394727928411805e-05 2.3354978482564759e-05  -1.5163307834343569e-04 -2.5948413989312882e-05 3.2534045258877291e-05  -1.8474043768611369e-04 1.4446386373404304e-07 2.9005067603677675e-05  -1.9153115741729845e-04 -3.7819798017622609e-06 3.1387554512000122e-05  -2.0158953908356353e-04 2.1374192158694310e-05 2.4547351185622714e-05  -1.1097135249092278e-04 6.8358521974670286e-05 -5.4337364405964156e-06  -1.4819210854257137e-04 7.5815724361446291e-05 -2.0767687807493785e-06  8.0586199148266231e-06 -9.4993558927879826e-05 3.0535591284697052e-05  -3.0011369271892423e-05 8.6218276411648107e-05 -2.4145283959540865e-05  6.3397730603167703e-05 7.8284615518731685e-05 -3.6179267018711003e-05  1.9037295210489093e-04 -5.4336037458160579e-05 -1.1748048484496227e-05  2.7348792518066130e-05 -3.5605320885998364e-05 7.6192812259182608e-06  6.0689128525974681e-05 -1.0561404517709372e-04 2.5814227239605656e-05  -9.7046188240969842e-05 8.2317162052562590e-05 -1.2296914510034717e-05  1.9188625465917244e-04 4.1045683516985833e-06 -3.1551398896109696e-05  1.1943041404708694e-04 5.6795485952776643e-05 -3.7796959868980843e-05  1.4304791330436723e-04 4.8367232855828003e-05 -3.8689496032758523e-05  -1.4786810120045825e-04 -4.1424214962142509e-05 3.7123092467406335e-05  -9.5990502565178825e-05 1.0815743577606114e-04 -2.1114016105469017e-05  -1.3814927556375924e-04 1.0188234879897722e-04 -1.2383025244934823e-05  8.6058615551445144e-06 -6.7873670934010612e-05 2.1370048079641217e-05  -6.1500883575357727e-05 -1.8065855557568837e-06 1.0276839952951191e-05  -1.2252230630313064e-04 -1.1946166410373472e-06 1.9668567869706254e-05  2.3658309508256941e-05 9.2742122028158168e-05 -3.4769833638244568e-05  3.2085022264090381e-05 -1.0372898786856328e-04 2.9681588023004149e-05  1.3950334330566785e-04 -8.9414905433471954e-05 7.9960946460434806e-06  1.9144409134229400e-04 3.1030855804454040e-06 -3.1146574629756101e-05  1.2143051365252196e-04 -5.1684828023297316e-05 -1.7933305943401261e-06  -1.6421107553834955e-04 -3.4398208478586030e-05 3.7341050329654060e-05  -2.5920866992169296e-05 -7.1204873950045882e-05 2.7915191706641900e-05  1.0698498775079094e-04 4.1538019139026960e-05 -3.0731659774918585e-05  -1.8969577131757774e-04 3.0282350624055464e-05 1.9694496399817916e-05  7.7943299496016416e-05 -8.9282644183277498e-05 1.7633131035170841e-05  4.7235018272651659e-05 4.6139670169156226e-05 -2.2875596149196265e-05  3.4388687894602675e-06 9.4923387427664060e-05 -3.2320265272131297e-05  -1.5179632289582878e-04 8.9908718026045881e-05 -6.2281478121800817e-06  1.8634341148023755e-04 -7.3691263185200043e-05 -4.6343923160062152e-06  -1.7240483619056315e-05 3.1300981083035228e-05 -7.7679248600727768e-06  1.7446728689478035e-04 -7.5516883463703873e-05 -2.1554786324523384e-06  -2.0234914282868044e-04 5.0559280869812280e-05 1.4895921072725578e-05  -8.8748878750392153e-05 -7.3853606678374895e-05 3.8682686973763235e-05  -4.3535913468250818e-05 -8.6368053254555832e-05 3.5761931931439888e-05  1.7605835266661931e-04 2.4154911969277913e-05 -3.5774868724469138e-05  -7.8991621229102411e-05 6.5774749482750151e-05 -9.5980458538127108e-06  6.1097029719962387e-05 4.5676284480485001e-05 -2.4900485350854879e-05  -9.6058762889918725e-05 2.6095322300415194e-05 6.3703340696584348e-06  -1.0445410812861277e-04 1.0345676047606875e-04 -1.8209235356130856e-05  1.8707991192526183e-04 -7.2853310190048115e-05 -5.0307576599861742e-06  1.2141823189167869e-05 -9.9868985036314167e-05 3.1525687579699733e-05  -1.6001757909009037e-04 5.4214542995555386e-05 7.0148485074996673e-06  -1.2131280631898171e-04 4.6555148578924104e-05 3.4921870969907435e-06  -8.9423160303649533e-05 9.5737764720351111e-05 -1.7988849533427855e-05  -1.3127768717435394e-04 -5.4664706164670728e-05 3.8946771077858813e-05  -4.1960875280208976e-07 1.5993564938679395e-07 1.2445353588707842e-08  -7.3225836680083754e-05 -3.5775747897259025e-05 2.3493331645219754e-05  1.2388553632475713e-04 1.1448235556011302e-06 -1.9866287668579186e-05  -6.8817700267033002e-05 5.8132296916491948e-05 -8.6394396443022477e-06  1.0725807088923432e-04 -5.0783582143381167e-05 1.3378754329847050e-07  -6.9914963946090004e-05 1.7031805187975427e-05 5.2931766212005395e-06  -1.3425533451832543e-04 2.7766221768423807e-05 1.1817963755376830e-05  9.8530549697407500e-06 5.3955485133270403e-05 -1.9613336112467929e-05  1.0235287057287973e-04 -4.1144423851769435e-05 -2.3218886022435081e-06  -7.5489776693594824e-05 3.8022789115860772e-06 1.0599025998578925e-05  5.7165367122818493e-05 3.2032313565793964e-05 -1.9714295884715900e-05  -1.0949324822615245e-05 -4.4477748868779936e-05 1.6612686380352568e-05  4.1714752813060541e-05 -7.1513543756174179e-05 1.7381732273709655e-05  5.3755460722318067e-05 1.2761765947132187e-05 -1.2726436681886582e-05  -6.8654584131748661e-06 -5.2738234318873707e-05 1.8735964060208545e-05  5.3089679983136617e-05 -1.6243145691833005e-05 -2.9111632906249085e-06  -1.0319875927025688e-04 6.6111750778889312e-05 -5.9039052694406103e-06  -1.2363963315721222e-04 -6.4615232843762834e-06 2.1607595907861117e-05  1.3303930481189398e-04 -1.6499670438757709e-05 -1.5398657577550304e-05  -3.2428618240139837e-05 3.5989523957629376e-05 -6.9490237043128138e-06  5.7163626212349685e-06 6.7459302880092987e-05 -2.3483723841541053e-05  1.0150917992282590e-04 2.8709185847876668e-05 -2.5575528728915835e-05  9.2141826825807864e-05 4.3904663474863447e-05 -2.9189661784746558e-05  -1.3619887887823939e-04 4.4807159477662385e-05 6.4184737803116783e-06  1.5537486819051780e-04 -4.2616145992546543e-05 -1.0167739861863453e-05  -4.7419940984071229e-05 5.6410895163333829e-05 -1.1428275707576876e-05  -1.4065488767495726e-04 -6.3109255023095410e-06 2.4233102185501031e-05  1.4604018529929487e-04 -1.4302483404208711e-05 -1.8178854401028295e-05  1.2046503029727137e-04 -7.3229502209565831e-05 5.5714593506303069e-06  -1.4377146478047694e-04 4.2784975225412174e-05 8.2863938952349902e-06  4.6422468111000602e-05 -2.9018992211075751e-05 2.4145959141754615e-06  -2.9702423492411841e-05 -6.5216585738537514e-05 2.6505080911644681e-05  -2.7330352915894632e-05 -6.9456141327091679e-05 2.7551397197783606e-05  7.5973733870504892e-05 -7.7987951748503058e-05 1.4161521594125754e-05  -1.3460188726249097e-04 7.4266193501632764e-05 -3.6952834932245020e-06  6.9659878640512769e-05 -7.3790475251119271e-05 1.3749202611553267e-05  -5.5951774538444015e-05 8.2465071793681667e-05 -1.8809196928026016e-05  -8.1370311842017827e-05 -1.7089632961897023e-05 1.8518249010271127e-05  1.3150791460882417e-04 1.8287495707936341e-05 -2.6804233987731734e-05  8.4536798545335215e-06 3.5272627523890690e-05 -1.3138418617171724e-05  5.6639241014045917e-05 1.2512035212181456e-05 -1.3096350470409157e-05  </DataArray> 
</PointData> 
</Piece>
</UnstructuredGrid>
</VTKFile>