<?xml version="1.0"?>
<VTKFile type="UnstructuredGrid"  version="0.1"  >
<UnstructuredGrid>
<Piece  NumberOfPoints="201" NumberOfCells="657">
<Points>
<DataArray  type="Float64"  NumberOfComponents="3"  format="ascii">-0.154737684807146 -0.2030906118793849 279.4372130550817  0.06672153803306896 0.1846592566350123 -279.4617492521559  551.3396283348787 -1.037386779175936 -270.251167328841  1046.678429319224 -1.99615049890477 -234.7447124890238  1437.177887687764 -2.507038510890014 -175.2978394218111  1686.394371908501 -2.679317002090499 -96.73921952302337  1772.003466100856 -2.737290501653721 -8.102285263830595  1686.38053371857 -2.738732157812555 80.57254465243413  1437.108728263889 -2.605501804429813 159.8360245045799  1046.550235652585 -2.207353910616431 222.0207810326445  551.1816145425834 -1.337218649465564 262.8033039212972  698.6856633614194 -516.6226464020473 -242.6938427906835  692.4360479609616 398.6916777145424 240.8380125453112  1687.751555240862 -459.5366096039406 -46.32457859374441  1219.236822237631 -501.9834244109385 188.2306900587155  1535.14018307085 459.8691447902837 108.1890871457666  1528.905642019809 459.8698694301454 -134.6262228157236  777.9397335583971 459.6451729670921 -252.3343637308187  269.5783876069099 -462.3498273797852 270.956382367739  1211.484742982643 -462.6736882027994 -195.0724794710371  844.4709622652391 -905.1222018945324 -194.1353119968682  1251.490810807592 -886.5409513788525 -135.999830087551  858.8740127574493 -1265.413174698436 -124.7068077605105  1207.754959932565 -1187.134375294266 -60.54800904006146  758.7444610289425 -1504.486763477873 -45.51882156746169  1079.003739294265 -1350.638409748283 21.42444114504815  567.9356202071289 -1606.667043156074 37.63728409419394  823.2930194368264 -1397.320220971518 106.0540306689204  298.1815156820554 -1564.723575267352 116.434824913825  528.5552398076925 -1278.656681529782 179.586644364043  -18.18083129845627 -1372.274087997713 183.8491127679008  1260.975565075491 -1098.626918343462 85.91674026082889  1209.697350282498 458.0490777775672 181.2979829081437  1223.016372392639 887.9037054600569 127.6689259643741  1479.413943187307 849.6293466480238 50.22934684621286  199.1739920039577 -1021.913583362848 235.29042882847  724.011622108467 -896.890601603117 218.0670305074025  841.2174193431828 850.3132547349671 190.744250515831  808.3491996994649 1242.921863096876 127.8795971485009  1690.991200965097 -448.4271809700502 38.82420380731308  1491.507263981381 -923.3617165123592 6.387792535060139  1540.339565313608 -465.4645241185297 -122.4033275161001  267.8061090538421 461.1744101764126 -274.4499219696831  1197.844637797302 446.7378184546256 -207.7994685803438  1213.752462485539 883.2724634474679 -161.3287810435347  369.7820126878299 -1518.433981168557 -102.2733491149743  -254.6750850528193 -1582.165382648059 113.8554211247061  361.8394909847759 -928.2500954450294 -220.7495956583797  1469.359516417938 859.9117830296533 -82.25718508630906  1097.922859908703 1243.708655022479 -97.92817433973127  780.233674165827 1212.329425121382 -172.6412940248073  614.3023653376822 1508.672299870056 -104.5868523363656  270.5059489007347 1418.762463025083 -167.9139905014765  77.2380823699326 1634.226844101048 -95.0446381688506  -281.9371286591577 1460.580819321286 -153.6656628166311  -463.0694082297946 1605.785838789425 -72.55050891415107  -814.7253539459306 1373.126294613495 -117.1669644818155  -91.09490638306058 1699.328193742657 -9.87578287268647  -564.8950954623227 -1317.768802340674 172.8447496138095  -779.6773563797425 -1455.174089150481 95.24219304348031  -955.3211461411568 1426.053272449478 -37.8338116158725  -1261.387440835339 1116.86965142455 -78.58583564764469  -1342.803014350218 1114.021980641988 2.74676315134776  -1574.806940121305 736.2125390357828 -45.71894732260859  -1596.250625700471 698.9447366541639 44.33471412614983  -1400.885128102563 698.5389333369258 -131.3162312537947  -1292.287432971197 1031.598466188425 89.3838676903199  -1665.848731632788 307.0054364315948 -79.08249776271474  -1476.32435538597 575.5029042000733 128.3453924001101  -1420.585004171507 198.2501882667065 -162.5834714878515  -1592.31037093507 -218.4670145382368 -110.3890932355925  -1100.436865368506 866.4954846227594 167.7095884470735  -244.8954957791005 -708.0213517313248 263.3943581998915  -1067.104837884679 -1125.460449327846 144.2719461475799  -1276.603260447775 -297.4811066358511 -180.6646150749799  -1376.19121464783 -700.6319619191916 -122.1074657175683  -1703.623081511402 195.8458450138215 78.79857911399507  -596.2152198507578 1139.095311553243 -198.5438146618937  -1217.284320069362 371.6867529018449 200.5155591640511  380.3347303466193 1149.141395130926 184.92009129371  -1639.542602610815 -572.7661796478234 -35.83734432643242  -1036.570390574475 122.129042072797 -223.8797554506704  -808.7091736769331 660.4592083125365 223.7640664317201  -993.0926070599496 -755.401965327066 -184.2691972118278  -1037.383688627574 -1123.972629584121 -117.3371665702033  -877.9087224810512 1269.450323042403 120.4311315737507  -444.09081620871 -1642.300824424315 35.69897220721729  -851.4123999507304 112.6606133313894 250.534673138188  -1254.694955932489 -157.8031470605743 208.2329519915847  -598.8438691741085 -1129.260098960604 -173.5666620443361  -599.3112019367355 -1437.769020515188 -100.9853306648883  -517.5351740161981 -715.9615363012883 -229.6443717502178  896.055644228314 1464.274915233442 -25.67818962372987  -1206.411966370363 -1206.025731050726 67.76215817729687  -1454.257470535786 -813.8579306140736 103.7101885477702  315.3367033121537 1477.506452271506 115.8009880969473  -117.2292277479012 1334.643597524348 162.0715067514722  -41.84541115154534 1007.106052670497 215.8278103463535  -484.0669611621732 427.0478162634524 258.4956615244879  -801.6818602284044 -922.0646282354135 216.2785179737539  417.3267592721623 1123.678100331511 -217.8034924041008  -991.1579268131553 -1358.218728005211 -45.08495680646543  -133.5304375399982 864.1857953756996 -252.0740383412435  -293.4750894267458 371.5943673966256 -272.5880989280236  -199.7620943979185 1590.822230490188 82.68048797249271  -376.4864881749843 -261.878166719138 276.3739346076133  -125.9733614702036 -1396.685281577892 -146.2720630326324  -812.4124526266676 -419.6989266108855 251.2292265194796  -1248.911996287998 -674.5840677302335 181.7900726956981  -1553.950685170909 -322.469446721182 137.7171358236089  -1697.9494394363 -418.9535340271825 52.01272833339159  -1764.212861940214 -52.1046223650944 -16.42694651661388  -685.3200306244607 735.1844199612412 -235.4826058198873  -1036.926261809912 812.4877847932573 -190.6847473348756  -148.4273050537541 -1602.214337234998 -77.36046446076729  -62.65634484762144 1260.664348740054 -204.8475980453402  704.4314434107779 1495.110303549601 57.26995023203976  1530.119708230342 -445.0413025318904 121.3343846699738  90.14143554564207 -484.4693663711968 -262.2362394272118  282.4695042518771 -1660.462303422231 -30.08345473543677  -543.4890384445994 1091.180999713532 190.9329726372233  1693.366770513152 425.6990905768758 -55.27447920536257  1130.414447583355 1232.219464959015 56.79158351814441  1333.541120669183 1116.045577370114 -19.56154188094776  -1351.589196306979 -1009.578463059355 -56.54669376258989  -589.3738778555877 1601.32156672781 10.38564776728886  -987.1935099444572 1382.122717580632 44.38611204497669  -94.52177500853301 -1043.814985438303 -209.6406288439783  -415.2881591916215 -189.8073355969238 -265.1097627806735  -874.4706437544248 -304.0719347776196 -230.8281298798244  406.775945586943 1652.577599522992 -31.82441932164012  50.31579777932494 -1690.704186222905 47.31766735939265  982.2626591711042 -1078.954255910405 161.3089499452011  1696.270084416747 431.1759568880017 26.82404281020447  780.0689778589135 -459.5617414033167 242.7266239256644  -1497.104419940405 -904.7116547320103 22.264983995809  -316.3913962169662 -1125.589951621918 221.6336226529539  865.0938199749077 824.4727531827857 -220.4771445467047  -1521.198004438304 138.4939800708952 151.9988360674112  401.0424682287757 -1270.749274569924 -166.9379615522813  434.6106312604293 819.4768792314285 224.271722312155  249.9246192336039 1645.746182469978 43.59061103899936  -1105.585416954218 1070.333325589803 -139.3164380370786  1484.056101095825 -823.1747788049652 -74.43793993789008  -28.33970322081252 444.859917556773 264.3631895322589  1345.594293576883 -801.8203814301553 131.0979902036995  -1721.118001575864 408.4417128222969 -2.356778626269152  -913.4364487448086 -1455.192867165503 20.3923219599918  -556.9130481483974 -1589.06445683778 -30.11294274764006  1588.36959826318 749.3567313888384 -16.10973712084839  -399.2571290681275 842.5329900667356 229.0490230631815  493.3566120578411 763.5234864358056 -252.1424325169555  -601.4901232531431 127.1596784744038 -260.9390595442501  -650.5521296320742 1490.946335137989 79.88568747398982  1509.273353514104 -765.9061738647406 78.88036914567165  -118.3479853237923 -1688.977978406982 -12.57433913489872  -1141.575852606681 446.0914082221648 -203.1954016211882  -781.660019324852 379.3905135227689 -245.1836400309432  -498.7000451064008 1372.020276383097 137.8823407009625  -1243.878915517815 -1204.322418872921 0.7810147545442288  0.004442534463127206 0.0124337645849369 -0.006329878686582122  -567.0479813497886 -667.8450264181668 19.82892349637083  858.9687049766826 259.1368052538042 -10.00215054579618  -343.9929831712624 704.1072539240857 55.08060638878067  641.8570938363276 -500.0613439033345 58.61834609553308  -418.1999632356429 74.090378815306 -122.7419992371626  -884.3209746219189 134.639963661901 4.016644473584834  167.377552460817 795.2057262001161 -65.05527985056113  598.3490264321624 -393.4203543547064 -82.885474143034  -464.9658973888429 -73.60236189548772 125.0553654477017  444.3651848282639 591.0052292006343 87.22491283820831  -163.1220141008182 -675.2896142344642 -96.28189838545927  148.8605360891814 -975.3283688413934 11.62059477965754  354.5821327255742 258.626104000527 -144.628
[...]
<PointData  Vectors="Tidal Force"> 
<DataArray  type="Float64"  Name="Tidal Force"  NumberOfComponents="3" format="ascii">6.3672719703938708e-14 -4.2473646851452507e-14 1.6520411291445855e-14  -6.3745727714606727e-14 4.2522347715446681e-14 -1.6539353820827576e-14  4.2314956263115172e-13 -2.8226696098596770e-13 1.0978963746116886e-13  8.6677543865432828e-13 -5.7819289096016803e-13 2.2489202299626470e-13  1.2235509851868247e-12 -8.1618427312689889e-13 3.1746037557886397e-13  1.4604181749981589e-12 -9.7418935626959762e-13 3.7891751790492297e-13  1.5558396449412655e-12 -1.0378413855099833e-12 4.0367540380683363e-13  1.5008500113061106e-12 -1.0011598947495715e-12 3.8940789067652067e-13  1.2999222315462882e-12 -8.6712862358907138e-13 3.3727552414743735e-13  9.7088972906764043e-13 -6.4764356974012681e-13 2.5190533272989242e-13  5.4467869718914326e-13 -3.6333441919067002e-13 1.4132137186998336e-13  8.6081798498381756e-13 -5.7421890045824344e-13 2.2334631259871615e-13  4.2939418114362327e-13 -2.8643250821960272e-13 1.1140985514095215e-13  1.7407202639562565e-12 -1.1611682067645643e-12 4.5164420237781446e-13  1.4075798440773554e-12 -9.3894291763488087e-13 3.6520817797372473e-13  1.1033505964229910e-12 -7.3600317064689034e-13 2.8627339520479683e-13  1.0425397907372386e-12 -6.9543859766400945e-13 2.7049553106511443e-13  3.5637643607417762e-13 -2.3772515077689593e-13 9.2464800088645876e-14  5.6928726398497835e-13 -3.7974985708097314e-13 1.4770626710691580e-13  1.2903922525537552e-12 -8.6077153747569850e-13 3.3480289264547654e-13  1.2274885505621866e-12 -8.1881087305831793e-13 3.1848200933018485e-13  1.5872914959370502e-12 -1.0588217177186737e-12 4.1183584546447956e-13  1.4670327007646820e-12 -9.7860165454747008e-13 3.8063371106690695e-13  1.7421804241696175e-12 -1.1621422240444479e-12 4.5202305296544893e-13  1.5372080006187864e-12 -1.0254129250186704e-12 3.9884127030861827e-13  1.7435821779744433e-12 -1.1630772806331359e-12 4.5238674952957803e-13  1.4484545956500258e-12 -9.6620890802308583e-13 3.7581346875690484e-13  1.5656519215750478e-12 -1.0443867816308005e-12 4.0622127975573709e-13  1.2049485440686122e-12 -8.0377529298118312e-13 3.1263381909240121e-13  1.2540537320439248e-12 -8.3653149410366497e-13 3.2537456435454748e-13  8.2976037724564047e-13 -5.5350155291512170e-13 2.1528816059973163e-13  1.7704393914988533e-12 -1.1809927051344592e-12 4.5935507467146749e-13  8.3527978285214315e-13 -5.5718333823308141e-13 2.1672021582098979e-13  5.8296409798345475e-13 -3.8887315226921510e-13 1.5125483427775842e-13  8.1289552678132703e-13 -5.4225165333246742e-13 2.1091243631255381e-13  8.2710775285803565e-13 -5.5173208819000011e-13 2.1459991536552905e-13  1.2108281225277437e-12 -8.0769733589484740e-13 3.1415932412527590e-13  2.8408877111141218e-13 -1.8950480197413085e-13 7.3709170330156824e-14  1.0917131195225080e-14 -7.2824025292621891e-15 2.8325395602135034e-15  1.7564656582569934e-12 -1.1716713597659742e-12 4.5572947454780586e-13  1.8520964178306820e-12 -1.2354629981498100e-12 4.8054166236727754e-13  1.5973958046135046e-12 -1.0655619172954676e-12 4.1445749153090989e-13  -9.7519233449634298e-14 6.5051367399151688e-14 -2.5302167912812194e-14  7.4282243814215848e-13 -4.9550856407085905e-13 1.9273139661197701e-13  5.1168394356790793e-13 -3.4132487538956965e-13 1.3276061142473713e-13  1.1908628652103951e-12 -7.9437927295457387e-13 3.0897917375702097e-13  7.2909206493585874e-13 -4.8634955491568789e-13 1.8916893825292112e-13  8.1114820172600585e-13 -5.4108607932087358e-13 2.1045907844268458e-13  7.6785931860057912e-13 -5.1220971369659454e-13 1.9922742135461555e-13  2.1329046956627443e-13 -1.4227795079684693e-13 5.5339968171054895e-14  -6.4334659000662116e-14 4.2915201351666342e-14 -1.6692156891173466e-14  -3.6813072579172936e-13 2.4556598987995795e-13 -9.5514547319103131e-14  -6.3178698831751734e-13 4.2144104338425255e-13 -1.6392233509296201e-13  -9.1112050433408567e-13 6.0777379575022946e-13 -2.3639771534272267e-13  -1.1381559487087932e-12 7.5922049587504633e-13 -2.9530393037870978e-13  -1.3637993736800972e-12 9.0973863285970754e-13 -3.5384897452115206e-13  -1.5464800179736253e-12 1.0315979347459302e-12 -4.0124697154009697e-13  -1.0776761126714028e-12 7.1887670014227242e-13 -2.7961193903889124e-13  3.1523398846239096e-13 -2.1028059055404561e-13 8.1790053364399447e-14  1.8943145167996440e-13 -1.2636250844355080e-13 4.9149549569108134e-14  -1.6828833179050488e-12 1.1225873823083791e-12 -4.3663793060161426e-13  -1.7798184872693389e-12 1.1872491427955775e-12 -4.6178855827937269e-13  -1.8311236499661143e-12 1.2214728632864170e-12 -4.7510010509355478e-13  -1.8245821322102595e-12 1.2171092658725388e-12 -4.7340285446095254e-13  -1.8010686855744447e-12 1.2014243409421486e-12 -4.6730209716474600e-13  -1.6692794919172400e-12 1.1135127879841312e-12 -4.3310830596015336e-13  -1.7187253839423366e-12 1.1464962598052524e-12 -4.4593744969274765e-13  -1.6607083514648142e-12 1.1077953065512154e-12 -4.3088445301073924e-13  -1.6042780264191436e-12 1.0701527854079851e-12 -4.1624314063396025e-13  -1.4006392158631818e-12 9.3431308883116771e-13 -3.6340737484716895e-13  -1.2954541412934049e-12 8.6414813071262789e-13 -3.3611624134927593e-13  -1.4356733265824104e-12 9.5768301009983906e-13 -3.7249726327981131e-13  2.5970409554829240e-13 -1.7323871340007665e-13 6.7382365516661669e-14  -2.4493214138979565e-13 1.6338490525192204e-13 -6.3549660405093229e-14  -9.8794440035969073e-13 6.5902009156916599e-13 -2.5633030759346269e-13  -8.2591042148308027e-13 5.5093339402049573e-13 -2.1428925788366885e-13  -1.5927962999414191e-12 1.0624937628638347e-12 -4.1326411217986136e-13  -1.2360402222117676e-12 8.2451536759416883e-13 -3.2070081093843053e-13  -1.2409512277293699e-12 8.2779131237884359e-13 -3.2197501174817437e-13  -2.9699172019680752e-13 1.9811186800403457e-13 -7.7056946689553171e-14  -1.1124230585486707e-12 7.4205506467923302e-13 -2.8862732018929883e-13  -1.0327907877127021e-12 6.8893540895865407e-13 -2.6796607197500855e-13  -1.0460101048443255e-12 6.9775351206586603e-13 -2.7139593262839234e-13  -4.7157334250689586e-13 3.1456862071117031e-13 -1.2235358578241901e-13  -2.7931891441443465e-13 1.8632301219317815e-13 -7.2471591743884313e-14  -1.4870807004941212e-12 9.9197491180027030e-13 -3.8583532963512779e-13  5.8018005917664739e-13 -3.8701602598890389e-13 1.5053249249066875e-13  -7.5652847534490214e-13 5.0465133960469871e-13 -1.9628754079457229e-13  -9.6188540775191788e-13 6.4163712984751188e-13 -2.4956908743948005e-13  9.6059073236273831e-14 -6.4077350119268196e-14 2.4923317325177753e-14  2.9290813880010936e-13 -1.9538786634462713e-13 7.5997427879468857e-14  -8.7424659174602278e-14 5.8317661270890527e-14 -2.2683047516966090e-14  -7.6721684810670069e-14 5.1178114609344576e-14 -1.9906072709605638e-14  -3.3751116611756042e-13 2.2514084752080127e-13 -8.7570050496408890e-14  -7.7668355348998750e-13 5.1809602479135703e-13 -2.0151694173921969e-13  -5.6217628374591290e-13 3.7500639292794052e-13 -1.4586126474513610e-13  -8.4779822308135363e-13 5.6553391304594915e-13 -2.1996822819230908e-13  -5.7747389558121933e-13 3.8521084729685319e-13 -1.4983035606825294e-13  -6.1628495405234036e-13 4.1110022659615623e-13 -1.5990020468757636e-13  -1.1458363914310690e-13 7.6434382676723333e-14 -2.9729668446966683e-14  -3.4137572348225445e-13 2.2771874658822626e-13 -8.8572741718348062e-14  -8.5049465227535912e-14 5.6733259828946716e-14 -2.2066783894414066e-14  -6.8090191069425225e-13 4.5420373795526676e-13 -1.7666560602569247e-13  -5.3748984173869860e-13 3.5853900744937714e-13 -1.3945616414352982e-13  -1.0884423606445807e-12 7.2605845421927983e-13 -2.8240533070504917e-13  -1.1421373188905560e-13 7.6187631632486187e-14 -2.9633692964765963e-14  6.7417543931137161e-13 -4.4971676501927022e-13 1.7492036765198982e-13  -4.1030015275357966e-13 2.7369560892299298e-13 -1.0645575228998578e-13  -6.6013356525955517e-13 4.4034996551105725e-13 -1.7127708783423861e-13  -1.1443129576084635e-12 7.6332760207188838e-13 -2.9690141702323501e-13  -1.2337867082824812e-12 8.2301213425888196e-13 -3.2011611819818136e-13  -1.5224603824638455e-12 1.0155753504918471e-12 -3.9501487937351038e-13  -1.0860963699017817e-12 7.2449353312293380e-13 -2.8179664409424986e-13  -1.4299348969439038e-12 9.5385512218989676e-13 -3.7100838047040795e-13  7.9055994271762335e-13 -5.2735243567451646e-13 2.0511728515703900e-13  -8.4015185076405565e-13 5.6043330922362580e-13 -2.1798431394839670e-13  -2.4414852207529229e-13 1.6286218264505123e-13 -6.3346343923062741e-14  1.6319967344694365e-12 -1.0886428801044398e-12 4.2343498762255409e-13  3.0315846349789987e-13 -2.0222546764940918e-13 7.8656959004662623e-14  1.2138555213701110e-12 -8.0971679838847231e-13 3.1494480767697124e-13  -1.0729111231751363e-12 7.1569815708558582e-13 -2.7837562328791084e-13  1.2250695518087194e-12 -8.1719725109797767e-13 3.1785438019000375e-13  2.8381134067087368e-13 -1.8931973869095297e-13 7.3637188718506267e-14  5.1284233733717386e-13 -3.4209759576494392e-13 1.3306116622426045e-13  -6.0839522169948270e-13 4.0583728656051908e-13 -1.5785314867905825e-13  -1.4532049835441585e-12 9.6937771090697328e-13 -3.7704599600200881e-13  -1.6663981090962087e-12 1.1115907272184945e-12 -4.3236070746722141e-13  4.8063607023115323e-13 -3.2061402129498047e-13 1.2470498509633680e-13  -3.1391010986894404e-13 2.0939748155361790e-13 -8.1446562164944223e-14  -6.4238288426580326e-13 4.2850916211194039e-13 -1.6667152752389593e-13  -6.1808095111477377e-13 4.1229826785041289e-13 -1.6036619091036671e-13  1.0453432983468912e-12 -6.9730871084138579e-13 2.7122292419337259e-13  1.5313332893603659e-12 -1.0214941288292726e-12 3.9731702811103569e-13  1.2431171320458548e-12 -8.2923610467733748e-13 3.2253697345316547e-13  1.0095012323096026e-12 -6.7339983334451243e-13 2.6192340510223915e-13  -7.7965254592382052e-13 5.2007652659378676e-13 -2.0228727126740972e-13  4.3199813352411601e-13 -2.8816950570206160e-13 1.1208547202223356e-13  2.2647084909220813e-13 -1.5107008010992850e-13 5.8759726142101786e-14  -1.3823044707840854e-12 9.2208267852009756e-13 -3.5865027430177252e-13  1.0584798730664238e-12 -7.0607161963607075e-13 2.7463131664679042e-13  -4.7260518905767069e-14 3.1525692625562127e-14 -1.2262130686434736e-14  -7.3463093934520620e-13 4.9004432713071272e-13 -1.9060604481534776e-13  -1.6295728685152582e-12 1.0870260114198334e-12 -4.2280609564708089e-13  1.7684487064079718e-12 -1.1796647949095515e-12 4.5883857503699248e-13  -2.2520537690729579e-13 1.5022593180069616e-13 -5.8431388966151928e-14  1.6811651960539945e-12 -1.1214412886423829e-12 4.3619214974349779e-13  -1.7511847454853404e-12 1.1681486639370626e-12 -4.5435929825586135e-13  5.4931227226620723e-14 -3.6642530069216702e-14 1.4252359106807665e-14  4.3492332115154829e-13 -2.9012078698609484e-13 1.1284443603279456e-13  9.5219967833662681e-13 -6.3517614855761827e-13 2.4705604520817159e-13  -7.9190329011391484e-13 5.2824853157200929e-13 -2.0546582769766268e-13  -7.1474842443994782e-14 4.7678145850296589e-14 -1.8544736264705882e-14  -6.6212911755114784e-13 4.4168112246023138e-13 -1.7179485030400568e-13  -1.4264305124318389e-12 9.5151748071817631e-13 -3.7009913906008532e-13  1.7919767546459206e-12 -1.1953594600127408e-12 4.6494312083907555e-13  8.8257437216288838e-13 -5.8873175792850735e-13 2.2899118635446935e-13  -1.3100508762262984e-12 8.7388505678719635e-13 -3.3990348439032822e-13  -9.6449422733312197e-13 6.4337737405423714e-13 -2.5024596715605362e-13  -1.2101905192345762e-12 8.0727201501596485e-13 -3.1399389270200880e-13  -3.8667476050140727e-13 2.5793600933447823e-13 -1.0032594978206052e-13  -9.7344014224031035e-18 6.4934485325565660e-18 -2.5256705842296056e-18  -1.0222094933665500e-13 6.8187703040376515e-14 -2.6522066804995096e-14  6.0020372290253062e-13 -4.0037304962037280e-13 1.5572779688242905e-13  -7.0193795216806539e-13 4.6823608023412133e-13 -1.8212358015821265e-13  8.6988557990878603e-13 -5.8026754776631983e-13 2.2569897474792605e-13  -4.3859319048779427e-13 2.9256881708286863e-13 -1.1379661384304911e-13  -8.5448088965783333e-13 5.6999166546354916e-13 -2.2170210104838272e-13  -3.3363687435144400e-13 2.2255645500484373e-13 -8.6564833603885512e-14  7.3696719568658303e-13 -4.9160275477852629e-13 1.9121220575556290e-13  -3.3667400759523373e-13 2.2458241094700141e-13 -8.7352842826165148e-14  6.3906345338076373e-14 -4.2629489616233862e-14 1.6581027385467363e-14  2.3036460966116938e-13 -1.5366745952295112e-13 5.9769994375793615e-14  7.0465871736562703e-13 -4.7005099909897107e-13 1.8282950508650484e-13  1.2690739134386927e-13 -8.4655088518939970e-14 3.2927167406601374e-14  3.4974244150480996e-13 -2.3329986560195860e-13 9.0743555585493394e-14  3.6192504488494741e-13 -2.4142641644045318e-13 9.3904432321656753e-14  -9.7852636698351581e-13 6.5273768011391729e-13 -2.5388672130322056e-13  -5.8551937835683550e-13 3.9057768250901126e-13 -1.5191782280611868e-13  7.8800466234424250e-13 -5.2564790543472040e-13 2.0445429662867873e-13  -3.4239783563160675e-13 2.2840055868414469e-13 -8.8837937129692156e-14  -4.4401038487936158e-13 2.9618242119123641e-13 -1.1520214952317290e-13  2.8686794271750824e-13 -1.9135868153017575e-13 7.4430249281954378e-14  1.6053001385684955e-13 -1.0708345975039034e-13 4.1650833604530428e-14  -9.8027855923954879e-13 6.5390650084977761e-13 -2.5434134200838190e-13  1.1346223609924609e-12 -7.5686337405772829e-13 2.9438711195663440e-13  -6.2644280193661814e-13 4.1787614013987899e-13 -1.6253574194221994e-13  -6.8336471425412022e-13 4.5584658043400356e-13 -1.7730460068350258e-13  8.3248114244320231e-13 -5.5531647177997125e-13 2.1599408552802379e-13  1.1563982169743766e-12 -7.7138921842505743e-13 3.0003703705355603e-13  -1.0546396517052858e-12 7.0350995418997724e-13 -2.7363493960131188e-13  3.5586051279879022e-13 -2.3738099800467039e-13 9.2330939547681714e-14  3.1613928779467436e-13 -2.1088448126757331e-13 8.2024940728732798e-14  3.7963678827300987e-13 -2.5324124604543978e-13 9.8499889949662525e-14  9.5839075764127533e-13 -6.3930598182432429e-13 2.4866237169974164e-13  -1.2605660465955125e-12 8.4087561117194511e-13 -3.2706423797539706e-13  8.4813892713113749e-13 -5.6576118374458849e-13 2.2005662666275707e-13  -8.9090701978046558e-13 5.9429014987237576e-13 -2.3115316037456985e-13  -2.9556563038842543e-13 1.9716057779401501e-13 -7.6686935948963522e-14  5.7551241369460503e-13 -3.8390241741754304e-13 1.4932143344553067e-13  -1.8618016160488174e-13 1.2419369663367688e-13 -4.8305975593975441e-14  1.5840304714605450e-13 -1.0566464124602674e-13 4.1098974581876266e-14  </DataArray> 
</PointData> 
</Piece>
</UnstructuredGrid>
</VTKFile>