<?xml version="1.0"?>
<VTKFile type="UnstructuredGrid"  version="0.1"  >
<UnstructuredGrid>
<Piece  NumberOfPoints="201" NumberOfCells="657">
<Points>
<DataArray  type="Float64"  NumberOfComponents="3"  format="ascii">-29.17096113864926 -95.10303303440548 284.3214961127923  -24.43933445418445 94.76171142238501 -287.5695692299495  4085.229646817987 71.2557787653863 -306.3053105998197  6921.77990559489 27.99844712799849 -345.8650308106455  8474.018988485503 -8.44649847375462 -349.0478318955564  9257.157868855851 -21.68400698844171 -213.5416428611542  9500.448320123609 -23.89109737918793 12.96480060765724  9258.802202934201 -27.40620029191044 237.3210265789924  8474.446589207242 -41.1000415787348 370.069069194277  6918.967637288402 -67.50333748689171 367.2832450735756  4085.772150850123 -88.15108324185364 316.5608269422638  4901.404357927285 -1352.006211141111 128.4483684211159  4954.725050587748 1014.189758617069 -25.27641462690168  9169.461381402778 -1276.797252520044 175.2323046156514  7466.728147487685 -1396.768496306087 737.7404082122823  8677.621683329984 1243.810768242831 -9.469205927647007  8640.70896566854 1252.262660972553 -579.9038821374958  5346.892648793482 1294.43353374066 -727.0433607975094  2012.210307856081 -1327.372755420352 728.4395438028896  7508.19116941129 -1248.523004651434 7.551396011784982  5441.821175936087 -2364.440183696869 386.3672323372002  7348.299690840402 -2352.643436960263 325.8711455915252  5168.505475161302 -3210.066268072325 612.4065247322167  6827.3057631239 -3065.707493835526 594.0675350376167  4415.375932585137 -3707.498863137795 821.4318547002151  6081.823392630385 -3419.421929748321 847.0566067887059  3292.189966864695 -3892.072089722833 1028.074981255469  4814.004889200188 -3496.230940207322 1083.175738907236  1773.012092746411 -3791.664856096904 1189.708106600522  3303.715821469447 -3229.183512145923 1194.719625726543  -129.496496900714 -3406.329717247323 1244.216521377916  7120.047107991575 -2869.08100769524 868.7085880844295  7521.551038950789 1211.335008711032 16.2926177786303  7236.759398460153 2334.446690840397 -308.324161689489  8201.922533199182 2259.638971454456 -355.9216510814178  1349.843121184829 -2677.34554829615 1130.786289162862  4747.269816546034 -2392.075779174874 1034.112426771177  5500.54989624368 2210.406816456597 -335.0292057692101  4954.126072845832 3133.643632385303 -591.1547329266971  9178.57964902915 -1247.399252576489 387.7669010063343  8182.089131421772 -2462.237666763324 569.6660884090205  8724.318253230807 -1285.396330924826 38.33318560208473  1980.332915932359 1324.004254533233 -719.9418629178548  7425.633629886022 1231.543636728547 -693.8631009994997  7139.743682958238 2339.073723373023 -893.9795094432743  2244.202062347607 -3697.588633858016 805.9438082024579  -1566.227642809653 -3823.539635447838 1184.33807479305  2541.475946334898 -2385.382829029423 481.70681918293  8135.912775793594 2288.113559961412 -679.2142523358938  6288.798566137862 3167.186213561417 -937.8891662779801  4786.633278638159 3076.623062793727 -1109.857892936654  3643.775074561394 3684.659713129716 -1106.073181836629  1691.754691650772 3490.656475891249 -1221.491775006966  447.1460586348799 3914.02743990918 -1161.478800898823  -1759.063409979386 3587.081612834271 -1225.054521685644  -2754.367590877648 3888.102784925082 -1106.53343424575  -4817.513654495878 3455.503855460775 -1102.559980516375  -559.4868026484841 4038.360322848179 -1018.738009417803  -3528.876833057306 -3311.700404231943 1181.454961419156  -4558.351041359691 -3614.320557764051 1061.898006620155  -5460.638264614985 3581.373430757443 -930.3625397027322  -7105.02581891835 2926.752631908911 -870.1194358244641  -7429.475427711262 2923.784240939222 -663.6917607979863  -8612.163358331245 2006.660346726554 -573.5699503691767  -8711.436200632419 1911.561028725833 -327.3763033348242  -8020.378760530292 1909.272853588376 -771.0830432443291  -7342.961811175969 2723.264624879589 -459.8915376057994  -9114.989508136052 869.4912604330216 -421.2404285844615  -8407.318014564004 1579.658681119273 -109.4780470516447  -8361.231852295125 583.3009036172356 -513.2232831103252  -8922.524280666261 -588.3044189240101 -155.2543591278396  -6742.896380850218 2298.853495316557 -323.9626921584523  -1811.372826003738 -1942.013786167438 912.4220377829464  -6255.26112602132 -2912.381202799567 995.4253722298819  -7831.027561226914 -782.43209749753 -147.1107081185207  -7969.930647901691 -1875.365555827662 178.0855451971212  -9256.793014032981 562.176550228422 52.36597725950938  -3822.793876215006 2941.820564402556 -1155.898516301799  -7562.243789095451 1009.0345971819 66.40568459563602  2552.242289595681 2892.266510073432 -593.4994421231554  -8911.360255404947 -1556.567748661882 215.335524539445  -6822.825736439964 397.8257318680223 -467.0842541240647  -5450.895996833199 1747.76598805326 -231.6578658460241  -6323.027455213784 -1986.957639876086 246.2356199083721  -6177.926426856671 -2893.931711599085 495.0113443032716  -5268.681800010594 3235.383561696843 -621.3142839550222  -2628.399168232217 -3951.151280845812 1030.621099850429  -5905.237081288497 261.3255859650882 231.1743322883266  -7767.421202150231 -452.6819154350501 483.0136710737746  -3912.072773061137 -2875.491176192083 553.536041155034  -3657.988662558776 -3554.667860759183 736.5703761749319  -3696.548489535976 -1855.331390571793 304.7005961475289  5161.141609230244 3614.01337161954 -887.8632126693039  -6786.402226872135 -3099.777350090922 841.6058834271396  -8126.952583600317 -2174.014872714475 717.9198223038039  1965.001791184606 3600.460892364969 -772.2642694700816  -780.6195621477775 3302.660004838105 -713.6295547713149  -290.6238438549734 2562.698807123001 -539.418591187089  -3567.353109476591 1100.458642065862 -85.28004009462681  -5133.093649921008 -2444.28559215892 1029.900818195043  2747.297630412237 2884.156698382503 -1155.53685609856  -5697.043891228359 -3424.099914564693 708.5865184704605  -932.9557000110821 2312.586737801539 -1034.004727393426  -2206.0118594114 1098.450974943054 -650.5331099352331  -1235.499822667548 3831.990213376369 -857.7806255223201  -2848.185853374612 -805.1093394710416 545.8928580184956  -818.1134523064059 -3438.789640845331 744.3549907663979  -5534.850067377166 -1188.8439600814 698.1915582380866  -7466.317883686891 -1827.303878662742 809.3869979423192  -8756.377586012301 -884.7234957343154 508.9327748186506  -9155.88042385064 -1144.845813294082 352.2475998057793  -9443.181919976991 -129.6662417934966 -50.19222619316773  -4642.035634670353 2013.124390991054 -945.2580650666943  -6428.34951994676 2195.01984312351 -947.8505843433013  -928.9695080353498 -3856.039508939667 864.1106188014916  -413.3403652195859 3173.337400630885 -1220.123475352476  4164.103972752998 3661.046973483839 -784.4307167730216  8672.72852139237 -1240.274261878598 587.334038636688  645.4543594545637 -1235.077147464072 167.2141015269085  1654.476212724991 -3973.786209825975 940.2717057819698  -3613.468769137436 2795.205867192037 -555.9145468631471  9167.43973064059 1159.175319921202 -361.2837063765348  6471.472256566214 3142.820134061156 -598.3252512706166  7398.795554558685 2896.325162584575 -662.1904816350847  -7589.572738932255 -2646.252195144323 460.729216791241  -3459.181435572578 3896.941962805463 -935.2120588204301  -5661.515199184794 3490.30689142602 -747.2995119487535  -674.6150943871119 -2652.823895715282 568.752718558117  -3136.077214285417 -433.250560802294 -125.2392803579915  -5999.398023864079 -765.7577318614638 -88.4627223685813  2392.072608924648 3953.784007753285 -1025.265347287718  268.9582561369775 -4028.572940299964 1088.490919102946  5896.951263705022 -2813.710970005176 1048.491124700572  9177.967470554599 1174.631208965272 -149.2297475536722  5333.682329644366 -1311.19116707194 740.2132468237668  -8215.301294650462 -2399.094414790888 554.33602259613  -2123.909594963745 -2895.872319689663 1165.373244421879  5566.215180765109 2198.99517000474 -965.8259084652996  -8715.088725530793 390.1154889522257 225.082621581802  2588.951514037012 -3181.096156132563 669.3220902690113  3088.028994788447 2110.336231704638 -394.8998289993987  1479.585008117173 3933.116290862659 -908.2227694766503  -6507.476272298829 2809.540442134476 -997.4208835224242  8264.850223173076 -2210.670197592785 341.8928371513608  -211.642362080223 1125.085218012169 -133.1544676926841  7736.182871921503 -2162.830735197522 822.0801307473015  -9242.463082745675 1146.184059441227 -276.9477304684709  -5218.090614908439 -3626.302526832289 880.3089403839119  -3293.780721181447 -3857.679093935797 883.5988292311173  8643.129097902232 2012.258174904402 -439.5948121153154  -2839.749609768772 2182.344508541614 -418.3200828037778  3452.089143159146 2059.637156284292 -955.6323682493232  -4397.015150147104 440.0087538752064 -441.7246002369123  -3891.192296004679 3681.684132509501 -786.1910914314209  8369.059850487065 -2070.112141854505 668.8522834646187  -732.0401919149236 -4025.457888538296 977.8303338870908  -7181.83468792334 1266.292551663587 -718.6870642038008  -5378.031219206116 1106.688483580781 -678.9456200457925  -3138.190563548855 3412.29174011535 -708.6363251713153  -6951.171866839828 -3096.370299109461 683.8653532806752  -23.41746238529421 0.9410849362050717 -1.080443487209655  -4013.875536146796 -1793.775879977152 580.7420414652452  5942.965261229399 704.3741274211461 -221.3996973346835  -2510.100078417961 1876.880237615446 -546.941852516355  4556.469338509931 -1383.430949184366 518.9740990758661  -3189.635109782353 254.5699618888759 -213.6278832273421  -6095.206561326881 384.6864330184732 -124.0247772243747  1223.056976391768 2115.81123228662 -753.7042132664343  4350.730909012053 -1060.552983922846 254.9915383931841  -3504.897303959134 -237.2404582026865 204.0172380278126  3263.253567912842 1564.510891405829 -404.2323416035965  -1230.546944795162 -1781.230309278945 478.8295795709601  1042.582310116162 -2540.871692850766 812.4091921547918  2682.979608507386 752.2310374948815 -391.1778965354464  -102
[...]
<PointData  Scalars="Pressure"> 
<DataArray  type="Float64"  Name="Pressure"  format="ascii">-3.5907149582647541e-01  -3.5295105472832916e-01  -2.9781468720656579e-01  -1.8296188626616314e-01  -1.4601316285151938e-02  2.9159585180872267e-02  4.6976814744431987e-02  3.1948108455236650e-02  -1.7305698522377393e-02  -1.7950258012110554e-01  -2.9574409904803750e-01  -2.3384788397703929e-01  -2.6521830186440243e-01  5.9978678975025172e-03  -1.1945246915987995e-01  -7.2137181885297188e-03  -1.4723221987133281e-02  -2.1113544226520359e-01  -3.1182837290597992e-01  -1.3550074440903093e-01  -1.8179806839534643e-01  -1.0298528408974159e-01  -1.6438031528207911e-01  -9.5760042871172887e-02  -1.5548696753882441e-01  -1.0603609402587318e-01  -1.8125955806730035e-01  -1.5127639235546303e-01  -2.1014994490409453e-01  -2.1177299798482355e-01  -2.3315896462373562e-01  -8.1940362152459645e-02  -1.0803170169537221e-01  -9.9230957267006231e-02  -3.2566785187504318e-02  -2.5923959903541943e-01  -2.1227047886648137e-01  -1.8850502867546051e-01  -1.7726888509258643e-01  1.0825324831941527e-02  -4.0486343298196198e-02  -4.1254091607864585e-02  -3.1814372354566844e-01  -1.2387775771594975e-01  -8.6161737275294720e-02  -2.1847000550014128e-01  -2.2054986162313603e-01  -2.7603959795734140e-01  -2.6412308857644666e-02  -9.5187914946940969e-02  -1.7792161181838925e-01  -1.8453241230580461e-01  -2.2490740815742769e-01  -2.1940030338930935e-01  -2.1477772250415816e-01  -1.9384691036179375e-01  -1.4734135106076496e-01  -2.1494341244115092e-01  -1.9118493787293914e-01  -1.4301207436974200e-01  -1.2961632528479541e-01  -7.1827931989502769e-02  -5.9662939886569663e-02  -6.8269949487380771e-03  -2.5208634738949159e-03  -3.7985907166183948e-02  -4.9748374390350625e-02  1.2817818681159818e-02  -3.9545637444958329e-02  -2.6965515637546442e-02  2.2770957022049095e-03  -1.2413855251634213e-01  -3.0759015971151960e-01  -1.2990900257559601e-01  -9.5414657420495624e-02  -7.0148051044519613e-02  3.0586992045826978e-02  -2.0541345588135729e-01  -8.7678080963305774e-02  -2.5400426823656430e-01  2.1848095534534019e-02  -1.8770652732453091e-01  -2.2978352689566583e-01  -1.6940455964067225e-01  -1.4280226814258798e-01  -1.7773749492474580e-01  -1.9815320808635078e-01  -2.2535701052088503e-01  -1.1613016178181611e-01  -2.1220158001326814e-01  -1.8547735547547611e-01  -2.6721757802445517e-01  -1.3777687778021780e-01  -1.0426341685627248e-01  -2.6651482499320884e-02  -2.3854370518461201e-01  -2.5712207322575326e-01  -2.8729706261287757e-01  -2.8861382319402878e-01  -1.8143265407056330e-01  -2.4421948178633388e-01  -1.3629407889214246e-01  -2.9131979375073447e-01  -3.1553498020504328e-01  -2.2633195370220130e-01  -3.2168092433178136e-01  -2.5340088563313129e-01  -2.0526259902799018e-01  -1.1495129567105793e-01  1.2138279551840443e-02  2.8777346423310958e-02  5.0582514371012605e-02  -2.2096097405403212e-01  -1.5407903275215812e-01  -2.2708471199855204e-01  -2.5220571933269986e-01  -1.8215854074628554e-01  -4.4132008556044863e-02  -3.5274340180670782e-01  -2.1139217929185544e-01  -2.3361163005882424e-01  2.9225247511805715e-02  -9.6279322517300286e-02  -5.2262496541375922e-02  -7.1608441223961913e-02  -1.7987570146657411e-01  -1.3447639617590493e-01  -3.0166511586552958e-01  -3.1541044765118786e-01  -2.1733175737618415e-01  -2.0531823374098593e-01  -2.0587261866303880e-01  -1.3197841465184942e-01  1.9643246204402741e-02  -2.1309967335958702e-01  -3.4682108059039811e-02  -2.6072805399198079e-01  -1.7142958435977917e-01  -9.0659717942736986e-05  -2.3535402551897330e-01  -2.9362525881237839e-01  -2.2447195323483135e-01  -1.1373518355373556e-01  -4.9758193387500149e-02  -3.4421141732698607e-01  -7.3617546818083440e-02  3.4798681135682553e-02  -1.1956778608821585e-01  -1.8319103665443001e-01  -3.2374576228546195e-03  -2.7416995382093390e-01  -2.6959190333867616e-01  -2.6643384479039622e-01  -1.7426586874867556e-01  -4.2222358343175760e-02  -2.0985871278130769e-01  -1.3196825989539226e-01  -2.1425926738253029e-01  -2.0922304639936401e-01  -1.0911280447935405e-01  -3.5805497798846059e-01  -2.4027656930930297e-01  -2.1072938301935007e-01  -2.7560544929165026e-01  -2.4954778729011615e-01  -3.0787513712382364e-01  -2.0276572387886180e-01  -2.8793432131699459e-01  -2.6450222210094848e-01  -2.9838575005783469e-01  -2.8594988661971121e-01  -3.1086164746046929e-01  -2.7658597409203256e-01  -3.2318259635937091e-01  -3.0620508074148167e-01  -3.3354115076278729e-01  -2.3916465246959062e-01  -2.0077360408443243e-01  -2.1315701959285269e-01  -3.2974360049421064e-01  -2.6297931772549737e-01  -2.0869491354753775e-01  -1.9455429655074388e-01  -2.0505107769129097e-01  -1.4198538807728256e-01  -2.9610052447225788e-01  -1.5141400875011710e-01  -1.6389127562468100e-01  -1.9479351589704219e-01  -1.7074920047522985e-01  -3.3959411052049460e-01  -2.4996681927654957e-01  -2.4240394371892005e-01  -2.4559363604175161e-01  -1.7031681408202540e-01  -2.6234871879837562e-01  -2.4096560916165990e-01  -2.6960928321484562e-01  -1.4769178569957894e-01  -3.2489388052632018e-01  -3.0915851997576826e-01  </DataArray> 
</PointData> 
</Piece>
</UnstructuredGrid>
</VTKFile>