<?xml version="1.0"?>
<VTKFile type="UnstructuredGrid"  version="0.1"  >
<UnstructuredGrid>
<Piece  NumberOfPoints="201" NumberOfCells="657">
<Points>
<DataArray  type="Float64"  NumberOfComponents="3"  format="ascii">-23.92232351192662 -35.1501422574705 613.0106152031152  18.93273995959101 35.1786258641148 -613.554358748147  2341.154558044335 -48.33479476560744 -759.3908147466591  4299.605177632297 -112.9054664623887 -828.7535622350836  5708.270034361623 -148.4215448086564 -778.251825984315  6547.611097841693 -161.8059268530386 -584.3071543074819  6826.957104529512 -166.6414431568399 -314.1785989491575  6548.00687730401 -168.692675662151 -44.0179077778786  5704.995583590287 -166.2716078814747 173.2723346450853  4284.747827305568 -152.066500137284 323.9858081883301  2310.20367264391 -106.7811397276772 459.9974777429043  2971.27962355189 -1992.950364127231 -533.0228112601669  2828.459219435398 1379.972232176752 225.9849986512095  6557.639332338134 -1786.222854997512 -289.4850319753657  4934.217967920718 -1973.191573994159 453.6113942293844  5959.475806528624 1497.816077890339 -105.8420590125982  5938.464213879794 1504.339567865358 -824.7521244504918  3169.973778381132 1634.820741354345 -998.5967814321098  1176.705498328842 -1809.954243287903 768.4759319066899  4920.90759308901 -1810.163726545257 -607.8447677774865  3507.64169517979 -3395.410641340089 -348.2978729191761  5010.887529736264 -3309.643527361591 -333.3764362893716  3492.265298490424 -4623.665010669296 -98.09559692426187  4777.12260581629 -4332.079888623832 -30.02228426173631  3062.135514636578 -5407.620442600007 193.8217543229441  4269.972613557116 -4885.522344666198 289.185248065328  2321.457274945993 -5739.008365634354 507.8416446417966  3320.231957858423 -5061.60420479819 617.1266254422094  1296.90872063954 -5604.658850588874 798.3439913013641  2217.180814732225 -4688.008229098684 857.2597463330903  57.98593385861805 -4961.812511481265 1010.328143468661  4987.089918927566 -4035.273933275623 383.099066928593  4813.644633344467 1527.034508485893 62.67668404914794  4729.998304141254 3060.877176293392 -170.9201227116853  5645.831190461282 2878.276457173316 -361.1211701027541  914.2838040749139 -3812.474071660729 969.5811695661016  3025.904424077424 -3394.447932460379 765.8787735037563  3305.554486475248 3005.937933479767 -19.51962227117109  3059.343852544952 4373.423375221829 -227.3656622825036  6569.348439246545 -1749.248502475331 -26.86382065571173  5830.642745407914 -3414.245509733572 45.57870199344217  6071.225084312701 -1814.642509502554 -493.4669333891247  1084.755013684683 1734.284104673561 -908.3152754318955  4773.294367254177 1511.559453303494 -979.9786868218508  4694.816926958046 3055.919975709659 -993.7617609902661  1585.741314426444 -5457.541824250369 139.2293688222384  -852.9303830842867 -5604.057196579972 896.1760562935219  1606.161981117989 -3466.112887109847 -240.0643425666473  5606.551008199326 2920.986121206655 -765.1768151535002  4141.156040679697 4308.095002604563 -874.7342225259206  2966.169859251556 4282.792879465848 -1061.395480805096  2246.655984500656 5293.772589441114 -899.6672749254535  933.1931132360529 5072.205268424458 -1021.348451687044  151.5022907915122 5787.76507439087 -813.4552053240172  -1244.418235795886 5272.925290672939 -884.9590494477981  -1931.238268898442 5736.984136650894 -636.4057013713823  -3299.70368966065 4988.452166045099 -646.4483407467005  -502.2110325310925 6008.318034002024 -532.7735740885973  -2108.12852322406 -4688.978146569753 1060.569678142785  -2888.50081279232 -5089.834023356892 882.1301619407019  -3808.265793632428 5147.756276462998 -385.531919176268  -4983.211047587098 4102.665263398695 -369.6949293712035  -5267.915837883749 4079.301782396271 -100.1138266066317  -6146.789770121082 2764.316905688244 -99.35149388884376  -6224.424030750197 2630.927181128298 194.8076445071709  -5554.783303049659 2655.260351280957 -363.9744637881612  -5116.903795135333 3806.593700063625 173.5266871810801  -6486.274366490495 1255.404182169214 -55.31234489685252  -5837.158990354574 2207.375873249564 460.6361508178678  -5655.255619775877 877.8414651802425 -256.8515828004599  -6196.755474664617 -629.4214360947184 28.26498629985195  -4472.076832609616 3252.916679548739 377.7757812485768  -952.9186193543867 -2640.888913684847 994.7956649425477  -4072.562186558546 -3928.095952241629 991.3376448640387  -5086.8118865807 -936.1847495009118 -115.5402934734295  -5333.063477900232 -2378.155738153028 139.9935616945554  -6609.860416875561 855.1653521790519 468.9470690663324  -2499.456005341613 4222.809448460418 -843.648317595215  -4943.59678070488 1483.107593822713 656.2145577572677  1405.471310917681 4144.083097691406 -48.40448444910928  -6269.872573484043 -1888.441396323606 336.1057726927532  -4251.620251711071 594.6301236304367 -382.1821208002721  -3398.279226929848 2527.193057409553 473.8541240449347  -3914.460957457274 -2641.746770978216 14.73423503019839  -3963.271408816355 -3921.710331461408 242.043056293789  -3565.170955765506 4642.359264405826 88.66976533617384  -1568.091471195884 -5757.54447082441 689.5474123101997  -3557.672001445478 503.3045796614302 759.8971632580112  -5038.111772371552 -450.6831840948647 882.6975687865139  -2280.771830723016 -4035.888954010028 96.57294613660326  -2205.47819479542 -5070.420547351662 301.863278644153  -2049.637611558653 -2585.225969822869 -117.3790641529795  3323.550520616607 5081.026232792337 -675.6368492122764  -4549.634595838408 -4163.506278258678 782.8193991373229  -5567.23165810173 -2767.207309887167 822.7129008610143  1091.907191012315 5251.307794082251 -235.8037881185241  -614.9019109989674 4841.395225850408 -31.26058488917408  -298.8137601553833 3712.670956880494 125.0787188020912  -2102.892805839507 1646.126442149503 527.6721529557321  -3135.955729349146 -3292.565939852624 1099.812350682092  1569.676464954959 4067.458403247319 -1099.127028829459  -3707.761158225671 -4722.081802302871 463.6440046361018  -638.2198843167928 3251.485969872534 -954.188976755662  -1270.03611517618 1475.22139452185 -719.8326631588086  -928.0234516243203 5678.764272007074 -237.8254818952005  -1575.539977846199 -974.8848243844861 845.3280712763864  -355.1540333382944 -5022.279016848224 127.471825946538  -3310.589829237686 -1482.55191167316 987.8809409144591  -4890.17300786447 -2322.208118269534 995.5139810849901  -6046.472105924063 -1013.612921087515 795.6559539273585  -6502.699590614266 -1340.424797133477 568.2305664635591  -6787.811656936815 -27.97170923791215 251.5817942687156  -2885.402410823189 2825.390898422574 -743.2606324732257  -4230.152952474155 3085.33287037944 -613.4122815540788  -433.4912649827306 -5681.466540141636 321.4270702333953  -375.3265181297651 4599.641936982215 -1013.0930944795  2591.345918406409 5226.509259527626 -427.6147507174801  6032.910649392768 -1749.925283560987 227.3127256355256  455.5209659383243 -1815.11475788907 -384.5204968004211  1233.379684146212 -5903.017199546972 374.4854820821315  -2319.638059287853 4045.528231898096 195.1362770496124  6496.579427676916 1362.573675382179 -580.9112955366999  4263.859056769098 4259.331777640091 -411.85117195074  5035.532918217022 3821.938481135257 -617.4974259431028  -5139.184601653142 -3461.122004831641 380.1710915817866  -2412.161788080465 5724.121417356521 -355.4485233787852  -3935.568194750207 5001.433449679521 -117.7510990148253  -257.971143022211 -3829.106107422539 -66.26955342575732  -1716.165265059647 -632.2679349921031 -400.8532452248357  -3569.814419971337 -1001.951329229969 -229.0985243992342  1418.989317419999 5793.973725126431 -673.6208694764719  335.3572464261377 -5981.296275521062 655.9730800479846  3977.64072387991 -4001.314896749462 648.7645407324771  6504.87735373821 1380.535758767941 -327.7759920381082  3262.714104103659 -1828.672819638653 612.7578178120034  -5685.384469896343 -3070.524647070931 590.8812942893514  -1167.660081556442 -4094.736876824749 1089.725202113096  3410.65009812525 2930.277981111361 -1085.754995998817  -6000.289805672566 645.5937945152045 679.1237052256391  1736.705675188786 -4649.461549330349 -62.7040133893576  1686.939399973608 2974.518354695649 88.29004108140134  814.4688373243239 5797.811588479765 -429.9151658540891  -4438.580031139818 3964.590085199102 -561.2413751922165  5828.691418901961 -3069.39473727447 -230.9255500339845  -195.5064264710874 1656.718045185155 387.7430878799945  5348.376316794259 -3020.436166623118 406.0804181322237  -6664.275099305853 1608.286832843969 151.9641695718437  -3386.213089621418 -5059.01612639493 661.7738485107675  -2007.829422670929 -5566.05530237032 500.750265449634  6053.805102743889 2512.059550012802 -536.0679505814389  -1760.744644512524 3162.656927914479 294.9698371462031  1958.972833987306 2791.240612249256 -1060.456968959126  -2530.427995981477 589.5886580570913 -511.4017941922824  -2667.201687567482 5372.337260295438 -121.6541688742685  5920.598071698717 -2874.300582026394 217.8840421192214  -313.8468987027619 -5958.020570409017 505.3968772856368  -4653.840946051482 1781.262452557895 -472.6054545448909  -3268.156230348984 1536.96330769775 -580.1770510193313  -2108.934626988567 4985.892754076444 8.536747279255746  -4683.477659052531 -4146.927581854744 579.0778809197056  -0.4585678904812219 0.6493416195823111 -0.1461657089439063  -2275.841838918682 -2426.229884321387 473.3865803422872  3534.59070156086 863.5748560685358 -340.0815190480685  -1526.852658411373 2679.892507502132 -97.94799984420604  2733.12694513715 -1963.059981918298 206.6145633988499  -1781.179974590429 354.357156969352 -202.6489705005963  -3687.283473578729 613.390782074214 160.3483754457525  606.7980410723179 2960.450593738542 -547.3696626014305  2564.78776924209 -1549.469745291734 -164.9133287100682  -1969.253333711561 -230.4637549758825 437.1839486429959  1785.143219168779 2152.604253685152 -170.2855052728978  -595.1127074259421 -2508.908279579043 121.9757974629029  724.3189094644185 -3640.982310206294 406.6330968134503  1479.090713839762 949.1063704655226 -537.616352890373  
[...]
<PointData  Vectors="Tidal Force"> 
<DataArray  type="Float64"  Name="Tidal Force"  NumberOfComponents="3" format="ascii">1.3984441083424296e-13 -9.3284881618707640e-14 3.6283783613042520e-14  -1.4429789948499240e-13 9.6255634322352259e-14 -3.7439277905327560e-14  1.9051440383820670e-12 -1.2708490459279769e-12 4.9430530421603664e-13  3.6437665388317963e-12 -2.4306179145337750e-12 9.4540522458294969e-13  4.9121347081673644e-12 -3.2766980247045645e-12 1.2744937875316069e-12  5.7011517482595365e-12 -3.8030212487866706e-12 1.4792107539010453e-12  6.0108857999182703e-12 -4.0096330409198218e-12 1.5595738033853552e-12  5.8286626724915952e-12 -3.8880789311146289e-12 1.5122945128838691e-12  5.1366830129786480e-12 -3.4264856487293126e-12 1.3327546937333231e-12  3.9168116315294922e-12 -2.6127558991477208e-12 1.0162490216352981e-12  2.1909363297424000e-12 -1.4614902013953052e-12 5.6845646689843371e-13  3.6461758031838401e-12 -2.4322250430455824e-12 9.4603032805254642e-13  1.7225461365006301e-12 -1.1490449383542808e-12 4.4692877539705780e-13  6.7278293318789693e-12 -4.4878787720668787e-12 1.7455907047491578e-12  5.5815159547782035e-12 -3.7232167663215507e-12 1.4481702624208635e-12  4.3233640397354465e-12 -2.8839515303856794e-12 1.1217323907503554e-12  4.1372179485355434e-12 -2.7597805608218663e-12 1.0734352550034249e-12  1.5931710743961816e-12 -1.0627437606323380e-12 4.1336135049735425e-13  2.2641877004459834e-12 -1.5103534016027934e-12 5.8746213804476157e-13  5.2321628893302900e-12 -3.4901766386608947e-12 1.3575277336587393e-12  4.9797206572431090e-12 -3.3217820378661049e-12 1.2920295183979131e-12  6.2519485167426596e-12 -4.1704368003800527e-12 1.6221195097332170e-12  5.7432579016121406e-12 -3.8311086604142441e-12 1.4901355420131307e-12  6.7154033684632712e-12 -4.4795898850150701e-12 1.7423666862483886e-12  5.8923305249948225e-12 -3.9305493312418153e-12 1.5288136613400229e-12  6.6676755982892310e-12 -4.4477525068599459e-12 1.7299833233739109e-12  5.5087026321386273e-12 -3.6746457712980270e-12 1.4292782464508262e-12  6.0123946321387430e-12 -4.0106395254423689e-12 1.5599652823259109e-12  4.5977962846358342e-12 -3.0670148314155137e-12 1.1929360958609564e-12  4.8807899355872274e-12 -3.2557891204297323e-12 1.2663611282503875e-12  3.1835629771862665e-12 -2.1236336417086307e-12 8.2600162204291074e-13  6.8198875661306376e-12 -4.5492873148392675e-12 1.7694759714642172e-12  3.3393961423568062e-12 -2.2275840125420622e-12 8.6643381959055036e-13  2.3162278104501504e-12 -1.5450673774578409e-12 6.0096437298805300e-13  3.1829740459002118e-12 -2.1232407880724108e-12 8.2584881897256498e-13  3.2516989199423776e-12 -2.1690845347122605e-12 8.4368005329722606e-13  4.8111451606106433e-12 -3.2093317429035568e-12 1.2482912180555167e-12  1.1341794457277418e-12 -7.5656792214949703e-13 2.9427219394505198e-13  7.1328826422658755e-14 -4.7580744122308241e-14 1.8506851205942439e-14  6.7763261197653816e-12 -4.5202291326560759e-12 1.7581735955997897e-12  7.1194783715072239e-12 -4.7491329336014934e-12 1.8472072721997596e-12  6.2707213098857649e-12 -4.1829594158750874e-12 1.6269902654549039e-12  -2.7119068922672809e-13 1.8090098266849338e-13 -7.0362656806052587e-14  3.0752190893549208e-12 -2.0513615595412763e-12 7.9789090844043532e-13  2.1006400221481889e-12 -1.4012569728073105e-12 5.4502834655911990e-13  4.6143058294482300e-12 -3.0780277201267299e-12 1.1972196331718100e-12  2.7353278620895825e-12 -1.8246330638542649e-12 7.0970333148618228e-13  3.3787328585047371e-12 -2.2538240380621234e-12 8.7664005442142236e-13  3.0314580877605076e-12 -2.0221702616631685e-12 7.8653675632903124e-13  9.1020547060037983e-13 -6.0716341158816925e-13 2.3616030230780508e-13  -1.4767086957785506e-13 9.8505614238883120e-14 -3.8314422762763123e-14  -1.3329023835653899e-12 8.8912842721737301e-13 -3.4583249608680727e-13  -2.3821151064776857e-12 1.5890182838504501e-12 -6.1805937433741110e-13  -3.4388427872880773e-12 2.2939210827506603e-12 -8.9223607027904023e-13  -4.3770638651821321e-12 2.9197726392155275e-12 -1.1356652525282582e-12  -5.1945588966355465e-12 3.4650924469796283e-12 -1.3477710681918603e-12  -5.9580864066031567e-12 3.9744125760792345e-12 -1.5458745661364939e-12  -4.0770836837486486e-12 2.7196672825119982e-12 -1.0578329249693465e-12  1.1371095005558851e-12 -7.5852245015779650e-13 2.9503242079090508e-13  6.4690451372650940e-13 -4.3152536895531288e-13 1.6784470151027060e-13  -6.4381870847560779e-12 4.2946694577049253e-12 -1.6704406393506981e-12  -6.8528774525511602e-12 4.5712936119161010e-12 -1.7780354690741714e-12  -7.0276878332946742e-12 4.6879029606637523e-12 -1.8233914614257662e-12  -7.0285055230141580e-12 4.6884484103404869e-12 -1.8236036177548418e-12  -6.9514966733615278e-12 4.6370787389994308e-12 -1.8036230377630015e-12  -6.5051354305386544e-12 4.3393281499875830e-12 -1.6878109387937371e-12  -6.6727861590359914e-12 4.4511615673395376e-12 -1.7313093004306313e-12  -6.4330181176007811e-12 4.2912214365341374e-12 -1.6690995082704720e-12  -6.3026842169562239e-12 4.2042806541317372e-12 -1.6352833048182218e-12  -5.5283612558111708e-12 3.6877592906095254e-12 -1.4343788381956778e-12  -5.0571432189561930e-12 3.3734276807697931e-12 -1.3121174393895830e-12  -5.7356115292948446e-12 3.8260080565919209e-12 -1.4881516277692181e-12  9.3647375283873451e-13 -6.2468598245327308e-13 2.4297582437934868e-13  -1.0457132056009423e-12 6.9755546188562292e-13 -2.7131889967557331e-13  -3.9365043256070130e-12 2.6258921455290822e-12 -1.0213584532271946e-12  -3.2514020206989945e-12 2.1688864845320179e-12 -8.4360302034440708e-13  -6.1878474833761366e-12 4.1276774417931685e-12 -1.6054879689360652e-12  -4.8525504370608356e-12 3.2369516262367857e-12 -1.2590341578855375e-12  -5.0496331282588084e-12 3.3684179852269262e-12 -1.3101688845338499e-12  -1.2028702493649293e-12 8.0238894171948240e-13 -3.1209458842266818e-13  -4.3150703297235594e-12 2.8784191122359412e-12 -1.1195805194125917e-12  -4.1599039710504536e-12 2.7749135426269894e-12 -1.0793213302999720e-12  -4.3466633295399682e-12 2.8994935994483536e-12 -1.1277775832937091e-12  -1.8819080221867915e-12 1.2553491842807646e-12 -4.8827652853148074e-13  -1.1245131851152951e-12 7.5011992775666814e-13 -2.9176420305491196e-13  -5.8202570168633502e-12 3.8824718383067664e-12 -1.5101135963343867e-12  2.1512345735411290e-12 -1.4350066715552732e-12 5.5815551942065320e-13  -3.2371946618229968e-12 2.1594092963987512e-12 -8.3991680412672399e-13  -3.9498696587599742e-12 2.6348076503642830e-12 -1.0248261989393418e-12  3.8367169766259599e-13 -2.5593278046218457e-13 9.9546780406825680e-14  1.1018320298010961e-12 -7.3499019267581145e-13 2.8587939059365699e-13  -3.1100925824506788e-13 2.0746243389091600e-13 -8.0693912330843793e-14  -2.1336834477765368e-13 1.4232989838510737e-13 -5.5360173535728735e-14  -1.3739669559657973e-12 9.1652103985196267e-13 -3.5648703744637986e-13  -3.0737832651451161e-12 2.0504037758827241e-12 -7.9751837202926150e-13  -2.1685520736715836e-12 1.4465585164946915e-12 -5.6264868738999778e-13  -3.3774430503162697e-12 2.2529636561315601e-12 -8.7630540306901193e-13  -2.4038617592553340e-12 1.6035246478721813e-12 -6.2370172242257998e-13  -2.6834289009060400e-12 1.7900132430029396e-12 -6.9623771876636223e-13  -5.7142396509719573e-13 3.8117516903386925e-13 -1.4826065180015422e-13  -1.2541462088574374e-12 8.3659318186472403e-13 -3.2539855822509761e-13  -3.8190977100514093e-13 2.5475746627779178e-13 -9.9089634031080123e-14  -2.6780457769194515e-12 1.7864223659644357e-12 -6.9484102293328326e-13  -2.1391103765695259e-12 1.4269190814079741e-12 -5.5500979670799540e-13  -4.1898275210229208e-12 2.7948744034160684e-12 -1.0870852416758937e-12  -6.1686901813768482e-13 4.1148983350810967e-13 -1.6005174492263013e-13  2.6552818791931621e-12 -1.7712374365710523e-12 6.8893474227206229e-13  -1.8079071025736827e-12 1.2059859885362696e-12 -4.6907638075016722e-13  -2.7004738377966685e-12 1.8013832713834462e-12 -7.0066016795934828e-13  -4.5256546356944057e-12 3.0188918843407373e-12 -1.1742183511612308e-12  -4.7869795090795278e-12 3.1932117569214847e-12 -1.2420212408301668e-12  -5.8769988427545379e-12 3.9203221498030386e-12 -1.5248357301698612e-12  -4.3496225875723788e-12 2.9014676078022507e-12 -1.1285453871513149e-12  -5.6514381601953235e-12 3.7698592071309041e-12 -1.4663121542273849e-12  3.0171241816660187e-12 -2.0126086586989789e-12 7.8281770639375310e-13  -3.2502290253275948e-12 2.1681040239838445e-12 -8.4329867703900747e-13  -8.8372789873144342e-13 5.8950123157961528e-13 -2.2929047831870052e-13  6.3635485618498012e-12 -4.2448809410815468e-12 1.6510750601461173e-12  1.3718837940614030e-12 -9.1513144186599577e-13 3.5594654394135472e-13  4.6202973535237196e-12 -3.0820244376985185e-12 1.1987741834164033e-12  -4.3537061689690765e-12 2.9041916094616587e-12 -1.1296049059613991e-12  4.7656514355630427e-12 -3.1789846111866534e-12 1.2364874965801198e-12  1.1518571187108255e-12 -7.6836002468461970e-13 2.9885881172601292e-13  2.0374783585189261e-12 -1.3591242320038174e-12 5.2864053297334615e-13  -2.3935092233426087e-12 1.5966188653578073e-12 -6.2101567175625176e-13  -5.5446566437922745e-12 3.6986293234530248e-12 -1.4386068107536782e-12  -6.4029972236140897e-12 4.2711956412597323e-12 -1.6613103401887083e-12  1.9976111174934747e-12 -1.3325303135387318e-12 5.1829664909563371e-13  -1.2251814974250771e-12 8.1727192575610196e-13 -3.1788342540172242e-13  -2.5938480718163753e-12 1.7302572828820879e-12 -6.7299523521498923e-13  -2.2996160544228196e-12 1.5339863075370332e-12 -5.9665431613606520e-13  3.9431431873770929e-12 -2.6303206774282861e-12 1.0230809605656390e-12  5.9747127642326211e-12 -3.9855033861728419e-12 1.5501884114943582e-12  4.8201251459228110e-12 -3.2153219491748401e-12 1.2506211491694689e-12  4.0673784855305124e-12 -2.7131933143250391e-12 1.0553148313968694e-12  -3.0529662477033071e-12 2.0365175361958521e-12 -7.9211722548488655e-13  1.6202132415476172e-12 -1.0807825606557799e-12 4.2037766338034407e-13  1.0271302332855748e-12 -6.8515946863697259e-13 2.6649739453027904e-13  -5.4819914346355525e-12 3.6568277485246921e-12 -1.4223478063677000e-12  4.2268328480301858e-12 -2.8195592480125824e-12 1.0966865784018426e-12  -2.4093616960589918e-13 1.6071934462930758e-13 -6.2512872630266975e-14  -2.7761004024473177e-12 1.8518308730328780e-12 -7.2028210272822799e-13  -6.3375820460555417e-12 4.2275596671209524e-12 -1.6443378338626851e-12  6.8526000221106203e-12 -4.5711085486329227e-12 1.7779634874625206e-12  -1.0507848287420141e-12 7.0093854857108488e-13 -2.7263477404995691e-13  6.5474460063211293e-12 -4.3675519240343399e-12 1.6987887659880910e-12  -6.7486998885286020e-12 4.5018007257206808e-12 -1.7510057424817459e-12  1.4227314398913257e-13 -9.4904997027580503e-14 3.6913938423807811e-14  1.6106005201429941e-12 -1.0743702802298803e-12 4.1788356367841730e-13  3.7151683732651224e-12 -2.4782473595200774e-12 9.6393101831827382e-13  -3.3240255225108328e-12 2.2173308573091556e-12 -8.6244578573805200e-13  -1.5799906948702477e-13 1.0539516313192564e-13 -4.0994159252630736e-14  -2.6778170184860245e-12 1.7862697699239208e-12 -6.9478166967455381e-13  -5.5086344913286704e-12 3.6746003171582986e-12 -1.4292605667567365e-12  6.9213394977549225e-12 -4.6169620354455715e-12 1.7957985102930583e-12  3.3260454108059819e-12 -2.2186782478796616e-12 8.6296986238427966e-13  -5.2274563062425571e-12 3.4870370562954034e-12 -1.3563065719312645e-12  -3.8940477338032029e-12 2.5975709697543372e-12 -1.0103427409740773e-12  -4.7627262479356101e-12 3.1770333299026197e-12 -1.2357285325695588e-12  -1.5474972629222663e-12 1.0322765001175826e-12 -4.0151090411614891e-13  -8.0308811734825604e-16 5.3570950393591664e-16 -2.0836782319894247e-16  -4.6712958825756892e-13 3.1160436145605818e-13 -1.2120061716071822e-13  2.5138361593249334e-12 -1.6768843826687393e-12 6.5223548584791400e-13  -2.9263703572049548e-12 1.9520702380299541e-12 -7.5927087953698050e-13  3.5889083196158432e-12 -2.3940240853285526e-12 9.3117180800552383e-13  -1.8133388985673838e-12 1.2096093328174361e-12 -4.7048570493616738e-13  -3.5520976806370263e-12 2.3694691097026899e-12 -9.2162098469125939e-13  -1.3241706254894942e-12 8.8330380388366978e-13 -3.4356696957275328e-13  3.1145558055028517e-12 -2.0776015850613375e-12 8.0809714327130711e-13  -1.4900594273293768e-12 9.9396190705123249e-13 -3.8660818483390214e-13  2.6643056693117295e-13 -1.7772568633607322e-13 6.9127603890364307e-14  9.7313350859550467e-13 -6.4914030962688112e-13 2.5248749979955737e-13  2.8561609869458722e-12 -1.9052362404888894e-12 7.4105448044822441e-13  6.1777918467067936e-13 -4.1209697094590371e-13 1.6028789512225562e-13  1.3759625082573900e-12 -9.1785219680113710e-13 3.5700479991614693e-13  1.4736812969361836e-12 -9.8303667989520591e-13 3.8235874407593580e-13  -3.9952952429976179e-12 2.6651093279414576e-12 -1.0366122407206492e-12  -2.4208190865331604e-12 1.6148362352158949e-12 -6.2810144058030806e-13  3.2453910278206600e-12 -2.1648767800631638e-12 8.4204341875864518e-13  -1.4997354223432455e-12 1.0004163948925937e-12 -3.8911870139462643e-13  -1.7787525703135860e-12 1.1865381101812625e-12 -4.6151199735039960e-13  1.2528369318661243e-12 -8.3571981303709527e-13 3.2505885553151874e-13  6.9946541420677504e-13 -4.6658674430685216e-13 1.8148205982981835e-13  -4.0755991875317318e-12 2.7186770316107836e-12 -1.0574477602052516e-12  4.6325773009180809e-12 -3.0902159230223386e-12 1.2019603168584088e-12  -2.5301558833095921e-12 1.6877706491335703e-12 -6.5646977258237503e-13  -2.8425036217502410e-12 1.8961259321977125e-12 -7.3751096461855031e-13  3.4750158229737265e-12 -2.3180507374976403e-12 9.0162146217003732e-13  4.6853669598317723e-12 -3.1254298944143925e-12 1.2156570284366858e-12  -4.3042700113454035e-12 2.8712146310890696e-12 -1.1167782878993891e-12  1.5709669047516800e-12 -1.0479322045295764e-12 4.0760029589472642e-13  1.2464755005365837e-12 -8.3147634442106937e-13 3.2340832980472471e-13  1.4647937884375295e-12 -9.7710816138498195e-13 3.8005280683253416e-13  3.8440129104920505e-12 -2.5641946442969961e-12 9.9736079417113687e-13  -5.0856893511273898e-12 3.3924697185915154e-12 -1.3195239683778365e-12  3.4722025809626522e-12 -2.3161741308717317e-12 9.0089154337119500e-13  -3.5561374572273230e-12 2.3721638908437008e-12 -9.2266913798371492e-13  -1.2007773530591124e-12 8.0099285028498274e-13 -3.1155156924705877e-13  2.3571999060370453e-12 -1.5723983023313715e-12 6.1159492047707550e-13  -7.7059468540027434e-13 5.1403437273424283e-13 -1.9993713478878407e-13  7.1342941304721227e-13 -4.7590159622680457e-13 1.8510513428289570e-13  </DataArray> 
</PointData> 
</Piece>
</UnstructuredGrid>
</VTKFile>