<?xml version="1.0"?>
<VTKFile type="UnstructuredGrid"  version="0.1"  >
<UnstructuredGrid>
<Piece  NumberOfPoints="201" NumberOfCells="657">
<Points>
<DataArray  type="Float64"  NumberOfComponents="3"  format="ascii">0.4239802760564556 -0.3546077756559658 7347.408988239491  -0.06259535086412446 0.06171884635082723 -7347.405783229091  2362.715010130186 0.04830135662944707 -6987.677147285791  4493.700289680533 -0.3569668965772582 -5944.677773875629  6185.165541567603 -0.05638941606885914 -4318.322442800373  7271.804781874835 -0.06937373390328591 -2270.446994899498  7646.698259597577 0.1169613258481743 0.7770237867750519  7272.089814921496 -0.235957201997496 2271.269498988401  6186.079607004481 0.02579710198583395 4318.982936703616  4494.742830820592 0.1015468188363314 5944.070913031894  2362.543403003656 0.1672479937074237 6987.427290039827  2996.252669784341 -368.2736972513136 -6393.775080332272  2976.036792570958 286.2621021318262 6550.69301009105  7283.722976464283 -328.4010095034196 -1089.925162424423  5246.216446900525 -357.6765615024973 4903.522589967423  6625.206870141883 332.0730169885468 3092.406667269521  6597.566055786694 332.068189320671 -3145.238748031208  3344.795828176063 329.6883834757716 -6308.627342240847  1152.668368172817 -329.8083222688932 6992.55187654082  5210.265078918603 -329.728802329556 -5006.226222981532  3634.859300512859 -641.2367491444634 -5185.138871153506  5400.86758869615 -628.6294842457841 -3570.827740809953  3715.68964086862 -886.8678571235821 -3440.248454856307  5232.026439679649 -835.4504030502203 -1692.730181805986  3294.984493486368 -1043.205706690052 -1442.894367284657  4682.963671508754 -944.1715087671978 364.6929106579347  2467.552569913265 -1108.5620730003 659.28020900672  3570.016093847526 -974.1069356819372 2495.516164278707  1288.33655852367 -1081.315200385799 2658.637541947886  2281.084614145812 -895.0849378286041 4378.079482942512  -88.30750072874115 -957.1236928917862 4391.424901529401  5457.335648503187 -775.4188893413582 2100.278864474054  5211.178293064393 329.8977841222422 5006.513387839595  5292.308735115575 632.9672053345071 3693.798783497214  6406.79066181669 607.5327257707486 1671.550171692377  850.4993840821439 -721.3887088871763 5854.611985890421  3114.782299142154 -634.6881474726164 5515.593024765963  3633.665596354622 605.2783064358151 5343.791326201412  3513.895195513706 873.7053395441832 3755.275666057765  7297.965235482249 -320.4193973817841 1089.941322046348  6451.699317761006 -655.3263554167423 126.7060819738671  6640.486553408932 -332.4452031867879 -3061.106600831853  1153.031257410334 329.5397632745965 -6992.861816258517  5157.941869753538 321.3643427467223 -5074.745458212391  5250.485562111834 629.7491221221522 -3767.142711497715  1599.037168041685 -1051.664135450054 -2992.319228158458  -1119.921029055126 -1093.105599235498 2517.343417757734  1551.620689431644 -656.3795256883219 -6007.601273426503  6363.762926154644 614.6751618921471 -1726.985405039879  4774.895460197884 875.5630270163331 -2085.080258683138  3388.875234985344 853.298724137841 -4038.390906855843  2684.814686986855 1047.231198558752 -2254.448697636491  1184.479476725932 987.9547709120909 -3937.516043789982  347.5611809266405 1126.090146731608 -2049.106134851325  -1215.343452071248 1013.713027061622 -3636.820857254701  -2009.058346258261 1107.974007722212 -1544.969156120322  -3530.271460819431 957.9645960870048 -2785.16935826007  -386.7010436583412 1166.455951662211 137.31791520526  -2459.260386203251 -922.6545344989573 4046.852780271111  -3402.720329443978 -1013.942535218395 2006.401687998065  -4147.69792591485 993.3513850485064 -753.0189152659483  -5460.023349782088 787.7188465667768 -1905.471836037538  -5815.754680203082 786.3649885607019 170.2658842282724  -6802.665781114634 524.7408587077489 -1187.96427136991  -6894.081765008358 498.3872414585509 1107.767238800042  -6041.884030209486 497.903032652351 -3381.872551253975  -5588.537719977329 729.8220576290728 2389.836544989635  -7183.971738859509 218.8928802223289 -2154.342772009978  -6364.757648221835 410.8583889807837 3254.199962410203  -6113.412068115857 140.546762394721 -4333.352551884538  -6865.357898169252 -159.1883242779454 -3092.958828416143  -4743.455930356021 614.491435709994 4424.118033503376  -1058.304647214245 -503.9532542903472 6621.124801310577  -4630.487334921909 -795.3059315933531 3295.640984497177  -5494.822252876226 -215.3280666256211 -4947.458011574627  -5946.470277637321 -502.4790943326782 -3509.851367765155  -7346.933706062102 139.2722641042704 1858.537346704645  -2569.846009155543 801.0283915683651 -4916.809237351441  -5233.458821394916 264.6326229102841 5120.21669566506  1653.025614139931 809.373653320523 5218.431924712523  -7087.391543525446 -412.5567045462989 -1247.324318292908  -4451.081729756301 86.25709047321172 -5953.784327337557  -3473.003986955462 469.611408681791 5913.258258443083  -4286.578601088079 -539.6109774222954 -5155.616295838893  -4501.921446005412 -794.2694821892744 -3465.885930265505  -3798.467986997981 889.4055746000531 3327.943730244877  -1948.998983368136 -1131.768951567082 477.238141698566  -3651.687480098533 79.74476897808661 6438.765070086363  -5396.545288800908 -115.1218496717358 5160.579593784426  -2598.548143499275 -795.8917872940575 -4934.21715569155  -2615.728704927524 -1001.73877828289 -3064.644892366235  -2233.226554408762 -510.3204880638904 -6328.629337429332  3911.864651029737 1019.543681945053 -208.997595501133  -5245.06946146184 -850.3944916700412 1309.276449557085  -6293.710465512295 -582.7450005940577 2284.77758377574  1381.689974121976 1026.472114583366 3436.075222612109  -498.2195901359223 931.2963003520294 4580.947445473622  -171.9669333664968 711.8641853125338 5953.517113217235  -2073.180619973993 304.3622488928377 6835.708420434876  -3465.476588140149 -654.7022186320161 5228.357249600109  1811.880007745674 791.274062271743 -5273.59619672636  -4318.419687692057 -950.8121588759744 -1614.578622820441  -568.3224952249283 612.2832892441694 -6333.091947667535  -1256.849143128921 264.6416096597026 -7074.234700137275  -859.7027073085694 1098.197143797482 2517.452510174618  -1616.75212790659 -187.8681430431097 7094.028899230431  -557.0006400163649 -973.270320758295 -4208.368150430768  -3492.403610737382 -301.212528065613 6285.797308742597  -5390.919105936642 -483.328342086953 4336.664819538923  -6701.039578473293 -233.909488433922 3254.407288520756  -7333.832263963817 -303.0443385517277 1031.560389520868  -7612.984117251616 -39.4710515787925 -638.2717357426916  -2943.051784397486 521.9688086838486 -6018.338092491275  -4465.920402814436 576.7673448862323 -4858.84268813995  -657.3634487296796 -1106.02468005534 -2426.505797754828  -261.7124891650864 883.4627953889103 -4974.064600044987  3077.476906770485 1039.47777990061 1934.340962868288  6595.499171153207 -317.6848773275157 3204.23886635777  382.6674110502266 -345.464346487183 -7042.780893135668  1222.512979847867 -1142.287043108193 -1142.951047907472  -2339.183303844205 768.665876419308 5214.773805548479  7314.402125122122 308.1233025610657 -1113.147326748882  4916.084847241686 867.9151596669668 1900.566147815223  5792.597609760531 790.8135124080644 -84.0000582445583  -5861.916666349076 -717.728343371761 -1865.041862540449  -2560.674466446654 1105.448413571454 577.3736195391918  -4283.49175431753 964.2037692597791 1353.67707726853  -417.2916647050789 -736.9240503531852 -5823.803186953114  -1783.708107984304 -136.590489325416 -7099.207131001236  -3757.672117908348 -219.1818407226518 -6266.010956956897  1786.824149541107 1138.439893928304 -379.1012376140876  209.3683859848657 -1161.380679984332 825.2431299193825  4241.81226589441 -761.0017847393343 4013.714429101906  7327.513893744574 311.6770801329538 988.3786742171014  3347.29274325494 -327.0952162960494 6311.883486672296  -6488.01851472783 -646.056223138033 181.9993316131351  -1375.554958858233 -793.1836402980011 5387.201530256247  3734.735346796856 587.4860036322129 -5354.145456626614  -6550.803738608032 97.81714365550268 3744.14895601633  1727.640724132267 -889.4672103876001 -4646.253862066365  1877.221049406272 582.4542802839278 6203.309918298884  1101.718565468761 1133.538335323867 1559.766698338713  -4777.882529515413 755.0177661209301 -3463.087509881047  6411.833801776985 -585.6765705003947 -1924.493637920363  -117.1281176544952 317.2951701111143 7098.280151791718  5806.799608512202 -569.7962332842577 3344.500615909433  -7428.282536781094 291.738738690031 -166.8622188536462  -3987.34672661179 -1014.484401992242 71.31328496773722  -2439.391596774596 -1098.862873038636 -1228.65069029448  6875.179728594093 537.4817147803337 -50.9937506297643  -1711.603868955698 597.710792684215 6195.531318660218  2129.126884377001 543.5301507827008 -6259.556686983659  -2578.849045157884 89.91200323466923 -6897.377005416948  -2821.62370336291 1034.640876696142 2353.786780652827  6518.466030951877 -545.4738764792958 2025.175880614728  -527.1738058697882 -1160.748215287934 -745.5164976657878  -4907.635444086374 317.9344255782709 -5308.815292360381  -3353.497037001619 270.2634380118853 -6405.900354653823  -2154.59711925459 957.4265868731594 3877.549882136628  -5407.67354413972 -850.5658973802858 -413.20453546505  -0.3372711220480258 0.009112480935414152 0.2186889132348615  -2466.40764824196 -459.3808138530903 205.7418409886911  3723.876875215464 180.3081592192994 -33.84238391320635  -1486.362994294607 482.3070053272602 1635.990997676765  2777.817839875678 -343.4522179343898 1487.079464682857  -1808.297730101099 50.51238627077664 -3300.859754161941  -3829.48344214839 91.8427687441331 2.792235260259017  733.0694912754541 544.6888936545931 -1421.29959934615  2587.821262271846 -270.5525039800253 -2221.910211297004  -2012.051609265326 -51.55649475536184 3201.534162107254  1930.476311393321 407.9868829522674 2583.175544246271  -713.3098148845551 -464.849597121531 -2807.186892068295  639.1589774828687 -666.0864628112907 13.92927868944165  1535.255071368034 179.2356458380373 -3673.11790659713
[...]
<PointData  Vectors="Velocity"> 
<DataArray  type="Float64"  Name="Velocity"  NumberOfComponents="3" format="ascii">1.9040928754702358e-08 -1.5994898534167408e-08 4.9470898902877735e-06  -4.5539904598140207e-09 2.6565659161340851e-09 -4.9465451144431303e-06  2.0995556242466600e-06 1.9987609519375731e-09 -4.7004847717675974e-06  3.9705200536364556e-06 -1.5752454643330775e-08 -4.0260657962812889e-06  5.4718473309909941e-06 -2.5867209157144739e-09 -2.8918419465143776e-06  6.4666011133551501e-06 -2.9110182407852890e-09 -1.5276670066181167e-06  6.8300854666348042e-06 5.0006786599758922e-09 3.6684641932041407e-08  6.4790994289680871e-06 -1.0817041689892770e-08 1.5674699315812204e-06  5.5170364841498330e-06 1.3229675514320650e-09 2.9239477443691916e-06  4.0216874340535798e-06 4.7136301861176971e-09 3.9982873379266901e-06  2.0907758205339758e-06 7.5574787368432910e-09 4.6884721036082766e-06  2.7956127330284809e-06 2.3798784562740328e-07 -4.5758674971652170e-06  2.7444347692297269e-06 -1.7619567285406644e-07 4.5971622632198430e-06  6.7453245058275417e-06 1.8469950231142940e-07 -7.6717038014634533e-07  4.9507612637788526e-06 2.3325501257970845e-07 3.5057601806356804e-06  6.1483829126852913e-06 -1.9056803367942837e-07 2.2205565144381218e-06  6.1174148250683496e-06 -1.9109761362022834e-07 -2.2058099563701240e-06  3.0801274279530574e-06 -2.1048892168891885e-07 -4.4694677722144286e-06  1.0669071621363721e-06 2.0549019768556308e-07 4.9252412561666855e-06  4.8244159452483455e-06 2.0814606880045839e-07 -3.5318084179396257e-06  3.7396247620519646e-06 6.6333701623603768e-07 -4.1861185982838098e-06  5.5631056925998942e-06 6.4429581435209834e-07 -2.8658110659763638e-06  4.4047093119446856e-06 1.4454053664987668e-06 -3.2494039274672841e-06  6.0443321508055409e-06 1.2148084995182438e-06 -1.5297085787502729e-06  4.3751069050105733e-06 2.2834695797520320e-06 -1.5413243695142794e-06  5.8055321868805384e-06 1.6937218146677899e-06 3.7581597470092833e-07  3.4287130146725004e-06 2.7062515565462891e-06 7.4069642608478600e-07  4.5252478089909033e-06 1.8608515153416808e-06 2.5382204904747545e-06  1.7437477869040849e-06 2.5420714927766611e-06 2.9394934968164378e-06  2.7243075610073549e-06 1.4932321913917620e-06 4.1542738219672091e-06  -8.9923688989384839e-08 1.7972707581944717e-06 4.3960754017341999e-06  6.0946736364411516e-06 1.0073915971576720e-06 1.8701078604218968e-06  4.8703358517804091e-06 -2.0057705808137957e-07 3.5454596260728440e-06  5.5056235751253777e-06 -6.3986719521659883e-07 2.9924811820908234e-06  6.5546686414286895e-06 -5.6780775498072392e-07 1.3411425048963499e-06  8.8581612369371119e-07 8.8109933474960271e-07 4.9604338351888799e-06  3.2595836543794867e-06 6.7940302587547470e-07 4.4584048181682282e-06  3.7026153876980627e-06 -5.9860437527957462e-07 4.2351691754825049e-06  4.1640740500027352e-06 -1.3986771562178175e-06 3.5444404655071326e-06  6.7714182858912551e-06 1.7883849020124156e-07 7.7606207021646945e-07  6.7790725069884841e-06 6.7546881716771114e-07 1.1295079748903253e-07  6.1889188693218893e-06 1.8763012282171123e-07 -2.1526377033383918e-06  1.0837103145784234e-06 -2.1776898401261231e-07 -4.9392617176690445e-06  4.7550929312308693e-06 -2.0696426635273505e-07 -3.5767925904103242e-06  5.3997597399037512e-06 -6.2826004349641201e-07 -3.0144753582721041e-06  2.1233233269629877e-06 2.3501488102929692e-06 -3.2123364638788682e-06  -1.5449920245292189e-06 2.6195093826935036e-06 2.8044651919527164e-06  1.6397567634117598e-06 7.4128746195223152e-07 -4.9239226749373219e-06  6.5449585829602422e-06 -5.7835935470453796e-07 -1.3640065845950774e-06  5.6598318555170251e-06 -1.3910236042585788e-06 -1.9426468929055016e-06  3.9444203695972315e-06 -1.3028747280782225e-06 -3.7350707671635286e-06  3.5637928264425752e-06 -2.3108924286521843e-06 -2.4064382115443739e-06  1.4945036596205849e-06 -1.9665378290655744e-06 -4.0066458361737219e-06  4.7707878829840492e-07 -2.8433516525038068e-06 -2.3459733614264975e-06  -1.5864131971235964e-06 -2.1470151626997793e-06 -3.8003913872523432e-06  -2.7949146889555489e-06 -2.7013949788242421e-06 -1.7489787901834581e-06  -4.4156511341587491e-06 -1.7854358966561129e-06 -2.8023509370748335e-06  -5.5235138298360603e-07 -3.1721301073445426e-06 1.7920763941274075e-07  -2.9896961881297499e-06 1.6136229974714471e-06 3.9360264587369603e-06  -4.4084630789988851e-06 2.0673899535848481e-06 2.0911677857249204e-06  -5.3141366742016086e-06 -1.9509613290562297e-06 -7.7511143026647472e-07  -6.1098230335842354e-06 -1.0492663709963054e-06 -1.7037147954426121e-06  -6.4953255992468776e-06 -1.0291876622881313e-06 1.3978538868898132e-07  -6.6980765846038278e-06 -4.1468588231326921e-07 -9.1942454741690277e-07  -6.7046576229737221e-06 -3.7995349959500184e-07 8.2550482572704301e-07  -5.8826887171935412e-06 -3.6986554346229655e-07 -2.5741832855363003e-06  -6.0505035539475736e-06 -8.5652074276185430e-07 2.0465750775695298e-06  -6.4881461603264426e-06 -1.1099217030335467e-07 -1.5298926333736417e-06  -6.0053396317011004e-06 -2.6122440534390676e-07 2.3895889851128808e-06  -5.4442299572935313e-06 -7.0234192773713101e-08 -2.9902188087607142e-06  -6.1313308729205031e-06 7.1305508598667964e-08 -2.1363174838140255e-06  -4.8688222494714098e-06 -6.1144039251175165e-07 3.5552826170281351e-06  -1.0412781872524906e-06 4.2673537137348479e-07 4.9835021499909471e-06  -5.2190379177148244e-06 1.1005819836164546e-06 2.9551328760135543e-06  -4.9524273734222191e-06 1.1114022022450209e-07 -3.4567431258043500e-06  -5.8186045375927438e-06 3.9089384879163166e-07 -2.6705968287780695e-06  -6.5458882954208050e-06 -5.4607274837007097e-08 1.2876153406282940e-06  -2.9248703523325949e-06 -1.1392294706217503e-06 -4.4131959028811600e-06  -4.7710671742310762e-06 -1.6134428308745251e-07 3.5727926427511244e-06  1.8702465794110217e-06 -1.1530664218243541e-06 4.6655574600112402e-06  -6.7050326456707890e-06 2.7748510066179017e-07 -9.3466332166356705e-07  -3.9769495780057997e-06 -3.3153340280839142e-08 -4.0902127234874775e-06  -3.3414647166876807e-06 -3.7412201510034817e-07 4.4261318047261745e-06  -4.2610659640932477e-06 4.6344884359781756e-07 -3.9958448323594561e-06  -5.0996999776554255e-06 1.0980494585542657e-06 -3.1058649852500972e-06  -4.5085943849341811e-06 -1.4599765375089488e-06 3.1544048811446762e-06  -2.7666283604960431e-06 2.8939973274748495e-06 5.3194785952800435e-07  -3.2426696782651457e-06 -3.2577100720389643e-08 4.3902521466693652e-06  -4.8294984276127856e-06 5.1224178727450463e-08 3.5103643677634032e-06  -2.9451172018809617e-06 1.1321100965937486e-06 -4.4291740687368918e-06  -3.3670739990015244e-06 2.0161401604399380e-06 -3.1598875979258640e-06  -2.2562411178584015e-06 4.3504919686255940e-07 -4.8172391386774389e-06  5.1207665076641144e-06 -2.1434553302817349e-06 -2.2024167702799324e-07  -6.1254420089959013e-06 1.2979277333834834e-06 1.1953923597845653e-06  -6.3384897822231593e-06 5.0080270050631848e-07 1.8022083121267629e-06  1.8086306396605203e-06 -2.1768473563917196e-06 3.6206451721162308e-06  -6.2562681645146535e-07 -1.7189125313589031e-06 4.5170487596845242e-06  -1.8665482791642594e-07 -8.4522780983271539e-07 4.9960157009653227e-06  -1.9321168519547289e-06 -1.9630921235126863e-07 4.7851408187690515e-06  -3.5993881460774084e-06 7.1019288577697148e-07 4.2873974347005933e-06  2.0263635578659392e-06 -1.1276590512679034e-06 -4.6867312227749110e-06  -5.3668496371700389e-06 1.7502327824286028e-06 -1.6013645996090394e-06  -6.0399688784144792e-07 -6.3083416572390867e-07 -5.0233183943986512e-06  -1.2195868780108107e-06 -1.7617839127387828e-07 -4.9213909701634766e-06  -1.1824228580551245e-06 -2.6495051703471659e-06 2.8269362959111809e-06  -1.4978991693971150e-06 9.9456584238459867e-08 4.8433503447795282e-06  -7.0443273626565255e-07 1.8860972500260522e-06 -4.2499259736780353e-06  -3.1929067473287737e-06 1.9133472259623534e-07 4.4417598119995645e-06  -5.2452258986582013e-06 3.7787811399245588e-07 3.2446004055960748e-06  -6.0450876335698324e-06 1.0965611968893975e-07 2.2774873970057299e-06  -6.7036290600397111e-06 1.6979655664363236e-07 7.2292110870890169e-07  -6.7603329073121193e-06 1.9552994824584885e-08 -4.3269937984596518e-07  -2.9135041150650817e-06 -4.5752889755631559e-07 -4.6387615507868784e-06  -4.5216321154554773e-06 -5.3131528431943483e-07 -3.8473082591406600e-06  -9.2033415086580024e-07 2.6927114248196103e-06 -2.7257396925816457e-06  -3.0814324050307998e-07 -1.4375724109143791e-06 -4.6888263429740404e-06  4.0703802033335890e-06 -2.2296928946897401e-06 2.0624899181324207e-06  6.1222213270486032e-06 1.8278882268173793e-07 2.3221442207952738e-06  3.6734212633792315e-07 2.4550104335311908e-07 -4.9998173319707830e-06  1.7423340951824589e-06 2.9657126170235939e-06 -1.3220894147645124e-06  -2.5841600134000175e-06 -1.0247148894104216e-06 4.5704622103250892e-06  6.7523997333093793e-06 -1.6314786065687714e-07 -7.8262077898656947e-07  5.8078942438053287e-06 -1.3648767649702034e-06 1.7862168903576688e-06  6.5237627363198994e-06 -1.0494235032153015e-06 -5.7292871494585699e-08  -6.3326945647045795e-06 8.3712150068413460e-07 -1.6020448222506900e-06  -3.5614687485348025e-06 -2.6696868601579736e-06 6.5125272186119982e-07  -5.3638333242702522e-06 -1.8177260948369547e-06 1.3768224213348626e-06  -4.9259539515974795e-07 9.2663582807152791e-07 -4.9754595593712702e-06  -1.6784777859975921e-06 7.5894319803729602e-08 -4.8379491493238200e-06  -3.4116465794210111e-06 1.2340653312446386e-07 -4.3597107867431460e-06  2.5505006402328576e-06 -2.9294395020017747e-06 -4.3761454557616783e-07  2.9899195798083748e-07 3.1140924428251743e-06 9.8350323363430207e-07  4.6846150967120114e-06 9.8199443772569222e-07 3.4772091468110140e-06  6.7724644475934400e-06 -1.8306169462040910e-07 7.1533720021233052e-07  3.1114419125459220e-06 2.1933051333850311e-07 4.4575757032034014e-06  -6.7357263064233937e-06 6.4197034393644368e-07 1.4854320711614608e-07  -1.5456914878057329e-06 1.0923850542292540e-06 4.7571472665960714e-06  3.7527954995082797e-06 -5.4962781281281735e-07 -4.2122256336821048e-06  -5.8142430004855086e-06 -4.2523669780084278e-08 2.5618828849052814e-06  2.0554698750270590e-06 1.4893453660701315e-06 -4.4008134034855141e-06  1.8703345550884351e-06 -5.6583451422583190e-07 4.8509802644257969e-06  1.5670167395964315e-06 -2.9080226879446770e-06 1.8115848000582660e-06  -5.2884895739749303e-06 -9.7503396273792911e-07 -3.0210478611875308e-06  6.5040614004667624e-06 5.1896249572726528e-07 -1.4960572709203038e-06  -1.1007769632372110e-07 -2.2531946169994055e-07 4.9891447132399163e-06  5.8580425315675306e-06 5.1561121316780951e-07 2.6318835231021935e-06  -6.8133837061076111e-06 -1.5989725385191118e-07 -1.0190229733657918e-07  -5.1891715246164035e-06 2.0666253850319102e-06 6.9021431350377093e-08  -3.3822429848801838e-06 2.6318530731241654e-06 -1.3653276252152552e-06  6.8383300376213290e-06 -4.4389341127647486e-07 -2.7726478492659889e-08  -1.7518465457497629e-06 -5.7428486352479492e-07 4.8785629108911859e-06  2.1446333223063211e-06 -4.8902490570377186e-07 -4.8244368508470045e-06  -2.3445442864814375e-06 -5.0695084633534672e-08 -4.7007338985601891e-06  -3.7310484937690322e-06 -2.2133209345581278e-06 2.5217943852935651e-06  6.4935548447563090e-06 4.4912281678567175e-07 1.5799595601744055e-06  -7.6906109424682474e-07 3.0964057719785081e-06 -8.7982419683970540e-07  -4.5505849731873075e-06 -1.8866849784799746e-07 -3.7938514930214061e-06  -3.0854460955577891e-06 -1.5785654070891232e-07 -4.5168212301767341e-06  -2.6850491141267794e-06 -1.7650869003225169e-06 3.8622405732383878e-06  -6.2577916617460096e-06 1.2427749536727571e-06 -3.8328199344860004e-07  -1.6202688022068831e-08 8.1522973731352576e-11 9.9697658182911958e-09  -3.5115366132859667e-06 1.1356894637804769e-06 2.4109842061256056e-07  5.0339906378976197e-06 -3.9082498603065580e-07 -3.3964437324159002e-08  -2.1456523523772981e-06 -1.2182573870299773e-06 1.9041719716082590e-06  3.8561117278894821e-06 7.9414611034123021e-07 1.6698070589752437e-06  -2.4423945183191391e-06 -1.0578452693232898e-07 -3.5711971211290021e-06  -5.1495186992458544e-06 -1.9615286775533471e-07 5.2184062290063137e-09  1.0546230032347960e-06 -1.4168273270741205e-06 -1.6890085595493613e-06  3.5448256656573587e-06 6.0266989102624617e-07 -2.4541366840765434e-06  -2.7131529277557378e-06 1.0790016927518700e-07 3.4640849189590816e-06  2.6554138400326021e-06 -9.3367785833556766e-07 2.8774979266099987e-06  -1.0020254883229296e-06 1.0990360927594557e-06 -3.1821951063797749e-06  9.5238629539328198e-07 1.8232299924136271e-06 2.5087877912807620e-08  2.0254231064404180e-06 -3.7941499087389721e-07 -3.8800345875925914e-06  -8.4544243835597024e-07 1.2464614540029549e-06 3.1563941921729163e-06  1.7677441320779233e-06 1.2778849025873747e-07 4.1110224240544788e-06  -3.6300005402977243e-06 -1.2102655869708389e-06 -1.5733811403683361e-06  -4.9583912486710774e-06 4.8785944169440943e-07 -2.1727045936851654e-06  4.9326524920769261e-06 -5.1761108940535410e-08 2.6808832375625443e-06  -6.7344970109195259e-07 -6.3178832658938536e-07 4.3461993426121612e-06  1.1755894511930807e-06 -1.9019226228139994e-06 1.2806595642098339e-06  4.3574792534260578e-06 -8.8511852509951332e-07 -2.3606784851906679e-06  4.5332777331880276e-06 -1.3685686034406641e-06 2.4061923062662688e-07  -4.8236291964102311e-06 -5.0689753667632132e-07 2.5591608611873749e-06  5.9175664259224828e-06 4.1216026738993609e-07 -3.9451277574939722e-07  -1.2325451710094596e-06 -1.0069983473094526e-06 -3.9476257923450453e-06  -5.6324110775620723e-06 4.4968373003167577e-07 1.6237472453887222e-06  5.3931838411188671e-06 -7.0118481112585982e-08 -2.3749144197852442e-06  4.4592479377361895e-06 1.3408840145219305e-06 -6.7607811108172161e-07  -5.1892842968573306e-06 -3.8214986763531898e-07 -2.4953550967097260e-06  1.1976544157309546e-06 4.3829557755947865e-07 -4.5238558609470832e-06  -2.1873523172755578e-06 1.8749258082391541e-06 -1.4417719616550186e-06  -2.1155426174244984e-06 1.9963007992908608e-06 1.3528218399207400e-06  2.4088395104075360e-06 1.6260812361883751e-06 2.5876501318239613e-06  -5.0203043402550138e-06 -1.2412013669952491e-06 1.0357500891625344e-06  2.0357648274239311e-06 1.6021230097218402e-06 -2.6405348603179366e-06  -1.5351620445159605e-06 -2.0850190474032653e-06 -6.5614060769500216e-07  -3.1396455037368344e-06 5.2355339866658940e-07 -4.0904493931885290e-06  5.4878308351890378e-06 -6.9047073105099670e-07 1.8835520861427955e-06  8.3813472793554868e-07 -9.6249558302284222e-07 7.4157451477203189e-07  2.3997588309990155e-06 -4.8164181875366455e-07 -1.5406963088647123e-06  </DataArray> 
</PointData> 
</Piece>
</UnstructuredGrid>
</VTKFile>