<?xml version="1.0"?>
<VTKFile type="UnstructuredGrid"  version="0.1"  >
<UnstructuredGrid>
<Piece  NumberOfPoints="201" NumberOfCells="657">
<Points>
<DataArray  type="Float64"  NumberOfComponents="3"  format="ascii">-2.184399634353526 11.68185775125699 199.6406685913969  0.7344520949935273 -11.94525706269815 -200.2659672276111  716.2567323558956 -1.966627507922899 -208.2810282386168  1322.164595021503 7.174869605405064 -201.0799428554391  1759.411794482686 13.20728300216587 -169.8658940997715  2019.977252396751 15.69991005769212 -104.8282187071938  2106.638303080436 16.30744278040465 -20.30959569496859  2020.182702330089 16.80118299378784 63.96846864279959  1759.340183122621 18.08790314635766 130.4232087298729  1321.38607552147 19.39999351604219 167.5811384031998  714.7408032888899 18.17814772141559 188.2041900187365  882.6912167178082 -543.1836952354813 -296.5227069554342  892.8250879274893 442.2246508450928 255.6121660165551  2004.188713138231 -457.2531622644976 -119.3412441329337  1501.01784658154 -505.352834797999 66.44277320663896  1856.425041646409 498.1668802192734 157.5683366482439  1851.348841373486 495.5515854057692 -69.53180679842018  999.3614784521592 491.7949205641365 -118.3051064733902  342.1455040614489 -478.5971073533204 100.2016327078073  1492.194936431265 -471.9941167888839 -256.6343921140806  1033.870652370617 -937.7902805100375 -327.5707075738979  1504.633113735571 -904.8848876770959 -268.6701076590116  1020.81808974214 -1295.51421963354 -312.8806077033582  1424.544592752069 -1205.809271658076 -232.9320035673693  884.3199115192105 -1529.701499294675 -261.4169215561502  1263.97115181351 -1370.014608244599 -174.8354599440971  654.1834642186107 -1632.390664706493 -196.5257932728917  968.966430692248 -1423.296018076791 -116.0844999846717  338.1882988587436 -1598.895017896484 -133.5356178357382  630.444581731418 -1315.497282117093 -63.46579961620449  -40.74036195109806 -1419.115562892076 -72.04975911155617  1494.768238236888 -1115.594397023669 -87.48752055005446  1503.410839306411 500.4870114421096 222.060651812356  1494.302772418456 939.3759077961574 242.5275723655469  1774.219897942756 895.844215366403 155.3279676535531  235.3199348436063 -1065.522206067326 -8.077351629810639  894.4893191103806 -925.1879209569726 7.880502650756405  1057.047018626875 906.9544858093782 300.2132050074995  994.268152088684 1297.719309584486 300.8411437053509  2008.79533197875 -445.3157174905524 -35.62235415804185  1761.781340442966 -933.9561927272628 -130.8619238793599  1851.709759877432 -466.6152004221021 -194.3467481724151  355.9110664586647 486.4658974304812 -109.1366273856508  1492.806856479358 481.6473048508944 -112.4176881785486  1486.395832462369 931.7119163739596 -18.15222181214001  425.2281179704282 -1554.748828733655 -324.544279117188  -325.4775170604427 -1624.486254564389 -132.4657226178857  443.3571005814259 -976.1851574133175 -351.3456311117807  1763.836673686269 906.0185852038062 31.52043526773085  1326.336548189596 1292.914481431058 78.47553237976973  967.3567029490556 1264.458687679919 36.33351620113825  752.175129429169 1554.002403380563 121.0360363966324  347.4798688552596 1466.352502603702 80.19204482905151  110.0792229941709 1670.957303278654 152.7222285550696  -324.3761266088695 1499.418655014445 99.87872991776015  -533.679176797188 1634.146641620308 168.2538610066479  -962.9808412865494 1401.139656563965 106.476469381821  -90.36585201686958 1730.038278426889 231.5142429057751  -706.935523827291 -1370.36341141809 -58.28435327126164  -947.9314590164662 -1503.551774644854 -117.935277847495  -1118.590195321978 1448.642641684726 171.7105013244132  -1492.527281992834 1135.694211150583 95.95359272087619  -1580.309892761296 1130.609297325676 165.6259942875926  -1866.740125055191 742.5176284384321 68.75701261484062  -1891.25688395308 704.7045026472455 149.2255406537481  -1685.118668194851 707.111209480777 -2.804974600926807  -1534.088548554666 1050.37994544507 242.4060172455735  -1988.703716685831 299.9205200584375 -19.52509455588758  -1774.123543843717 581.7692897716964 215.801229429119  -1735.986575354694 187.2307525465427 -100.7542135739166  -1920.419244885316 -247.9651280600814 -123.8017653962177  -1336.182449860434 890.4713595228343 297.3178138227564  -328.2571988979649 -747.0342901280311 59.55173303433182  -1303.741891339443 -1178.105485644124 -32.92039433552992  -1581.121187672228 -333.2618692878901 -194.6889151369475  -1673.14016736377 -748.0881561769656 -208.1648275698213  -2031.075562467293 185.4985887363862 116.0615765235355  -722.3148187420152 1174.969627283491 35.37542890078633  -1503.498263464879 377.747086594657 246.7494778037537  487.0270964286321 1207.435950055726 350.2762267167801  -1957.086564766453 -612.5675930902544 -102.534855234503  -1306.090929901394 107.5639196883175 -148.2577741084029  -1008.358903867726 690.091311078895 310.9809453359467  -1240.092489383442 -809.7755644761762 -277.763161766921  -1267.514232574508 -1178.975697318607 -269.559720526814  -1043.105844638406 1300.518600425215 309.7808424528421  -545.5209146855005 -1682.332982412425 -195.3460905766863  -1086.203988668532 114.329489986976 225.7432421028945  -1559.903059187401 -178.9233470442447 162.9559003827258  -753.6446270368248 -1188.65012514186 -333.2974234120156  -737.9542622658248 -1489.003774253563 -304.2230008641448  -668.9810423556829 -772.3448033430983 -311.5914148280892  1080.121152644193 1509.41942218693 172.6481901402925  -1450.60816141205 -1256.477592723476 -97.04137375930165  -1750.816020448465 -860.1090044357352 -8.151786185787499  397.9204764918346 1525.881933654993 328.2954382687334  -128.1254024608753 1383.752176618728 360.4046968617968  -38.87296565471029 1062.122411179376 358.5703697265882  -618.3796526725462 456.0127965460542 286.6259591046094  -1010.7654832755 -973.9134420413453 26.39571127311804  536.0591500741582 1176.418824231748 16.41805639164311  -1195.784792334066 -1409.22425097774 -228.4266071157724  -156.0990891097666 904.050427840342 -23.23485419861286  -375.3796667605758 381.5175064016403 -118.6834082133958  -221.6973459042067 1627.044795761467 312.1633857880338  -495.83925843383 -276.4113032609949 150.9563153709863  -171.2526202843089 -1447.951405970101 -352.6085040974423  -1040.923348091967 -450.1421602141642 125.6665795893214  -1538.992923935664 -719.0728422391528 61.14882489881874  -1879.161030709371 -353.4410821830102 92.45318649652116  -2023.454690336134 -453.2890467296916 4.820461708441861  -2096.699235435545 -73.26390150677553 -11.11358625644472  -857.2005195376743 758.9814272585363 -41.0604959268337  -1270.52035325848 831.5686535109661 -15.18545139852731  -197.5306255651113 -1643.677616412368 -306.2367475444102  -60.52611324247394 1307.231581876754 48.89648505866932  856.5123652330171 1541.21239141031 261.9619585097904  1842.941493632389 -442.8069545766965 34.14524133205026  108.3640505703411 -524.9238347844648 -293.3060530810185  315.7806301531826 -1690.754609263383 -266.5232503571937  -658.9783708009209 1135.130495492106 354.201587715642  2021.437338525948 460.0046230303022 -7.335377074694877  1362.16457914252 1282.234141991885 219.4810490341062  1595.717291450458 1164.118836508963 124.0628531781317  -1624.328117639476 -1059.723920044411 -186.3791200116371  -681.5984072661157 1627.728411760005 239.5562126325477  -1157.723767457512 1405.551376799946 243.7943778375926  -133.3870330903578 -1101.884944472298 -358.7615417242628  -542.0935867157892 -220.2275326077489 -229.6232999917155  -1115.481708531407 -342.3884496687664 -230.7016093202872  500.0368612199485 1691.104628973588 200.7191617010837  39.04045846275107 -1723.159157402202 -197.3075698363105  1182.771821718979 -1103.876442062261 -39.62917048421185  2023.831182309933 466.1655198975979 73.22146469242071  986.2390890364812 -467.1518209972855 93.67503553958819  -1788.970551538853 -951.6056324174114 -91.87488408365373  -412.4353012917561 -1177.928746802045 -18.64970095268888  1091.229662116558 872.7857164803206 -45.62978372552655  -1843.911050071467 128.1266374826706 173.1089011157461  474.8265864926762 -1315.510986083459 -358.3230238628937  562.2078858539352 877.7505270711741 327.1983501217869  314.606928118487 1684.11480832331 274.0914113201356  -1325.486586309181 1092.917848501986 49.51220622847534  1763.357755818377 -833.2343641720051 -196.7698311702439  -30.74114147294672 484.4155507028725 284.5712942174299  1617.468020650024 -813.9886480673161 -13.72919274330397  -2039.565522313424 404.7973579863497 65.27059697483423  -1099.67006388984 -1503.302633030514 -178.1988860288227  -679.6103480462627 -1632.545551514603 -249.620465424246  1896.520001985709 792.4286735480744 74.42572029478876  -494.1279556294232 888.4339513879326 343.5441984474051  641.3638531234992 807.455626661673 -55.06735028932583  -775.8376605668566 116.2388863381378 -161.7845259467838  -761.0262113620535 1521.426821370846 296.3630074312107  1796.035863706352 -773.5675032394716 -45.40043737086135  -161.1344463574906 -1724.513319165492 -250.4346256172838  -1416.369845461166 448.7762741564475 -80.56309171293626  -991.2976620705984 382.6354561964579 -108.3665046056559  -588.9233108914616 1411.117253281091 342.0854541309643  -1490.730922806127 -1254.303129788339 -156.8369515857636  -0.03197058081037215 0.02463540719672699 -0.05313903894104397  -735.3529455751426 -717.6486501148885 -107.8838387878122  1101.705341030274 289.0224265256123 32.83989938588432  -431.6059732391118 744.2061023298294 184.3716121172324  816.2865447625941 -519.5263836186689 -60.39110064318206  -545.8615356840804 67.11775496734538 -68.91591033961528  -1128.38791449457 129.4020609986025 38.39455984873683  228.0156381572292 844.71232038787 104.8971575814153  766.446445384673 -412.2680507532565 -147.8073210113236  -608.0783049614763 -81.70740496652591 82.3507798537053  581.4835239656734 639.0401809364995 178.1764638885491  -220.7940923379968 -724.6748034694388 -205.3045629573537  173.9537939087418 -1026.267399229698 -176.7382960683759  467.6117865955136 277.0641187676711 -56.452430841144
[...]
<PointData  Vectors="Self-Gravity"> 
<DataArray  type="Float64"  Name="Self-Gravity"  NumberOfComponents="3" format="ascii">-1.2246263298427713e-06 1.2682181174708745e-05 -7.2388558398483240e-05  9.0508615158355284e-07 -1.2600337585924729e-05 7.0616513992747252e-05  -1.1636184258160943e-07 -1.1347405828009281e-05 6.7037554768317861e-05  -2.1618535141277073e-06 -9.5463526405518690e-06 5.9978691675213660e-05  -2.9282722613831122e-06 -3.8234599216644801e-06 2.5729157876571171e-05  -9.7735102386626336e-06 -3.2395236704798147e-06 2.7678348589231948e-05  -1.3225183643405651e-05 -6.7474662653165359e-07 4.0558864591887720e-06  -1.0123650972202644e-05 2.5759762462436999e-06 -2.1481274984334209e-05  -5.1376417756926605e-06 6.0920497195503070e-06 -3.7903707424401467e-05  -3.7100030714609683e-06 1.0557264414581668e-05 -6.3060350516135725e-05  -1.7238185424853857e-06 1.1291143365867266e-05 -6.3877694520824490e-05  -7.0116580164996479e-07 -5.7868785472607360e-06 4.3745169588346284e-05  -2.8767231278849424e-06 8.9237066102638608e-06 -6.4905947789724216e-05  -1.6923624646235677e-05 3.7986943826874247e-06 1.5843599308702549e-05  -3.3698653923032466e-06 9.0925428595854094e-06 -4.7209893670148999e-05  -8.9806164264159085e-06 2.3515866713643471e-06 -4.0267339968078007e-05  -6.0083232481613320e-06 -8.5233389882874726e-06 3.9516417048435316e-05  -4.7904182613558921e-07 -1.1402189179450551e-05 5.9199079550869310e-05  -1.0217043490954889e-06 1.0549711948232991e-05 -5.5372137217147703e-05  -4.6182945089824687e-06 -6.1064017048931301e-06 5.8427598955315197e-05  -3.4567969874086429e-06 -2.9428222795454393e-06 5.8230847825202699e-05  -7.4749107624530306e-06 1.4775148341922588e-06 4.5727538962565235e-05  -3.8860549859880729e-06 3.5592165079795525e-06 2.9506648061485913e-05  -9.0984436272889263e-06 9.4092477666250801e-06 1.9206342573520755e-05  -4.6881083890068439e-06 1.0656558582326799e-05 1.6887360612975176e-05  -7.3001252083898060e-06 1.3490153829723009e-05 -9.3249989009180299e-06  -3.9462096842966906e-06 1.3755539001711602e-05 -8.9594267905394754e-06  -2.5195348151709481e-06 8.3084982094774139e-06 -1.9772635948170921e-05  -1.1246368631160543e-06 1.1176178073818442e-05 -2.7857597609190603e-05  -1.9017333237164190e-06 1.1182697123085958e-05 -4.1464078134947359e-05  -3.0451814933860580e-07 1.1789223398391559e-05 -4.1497619113771513e-05  -6.3914989435268407e-06 1.1734473827686349e-05 -2.6615354495653262e-05  -5.4693197147243500e-06 5.2785118197444422e-06 -5.2311829409763832e-05  -6.8002989872559909e-06 -5.4166873926720622e-07 -3.8708724014903582e-05  -1.0996265490799497e-05 -4.0157095141851842e-06 -2.6826115386297942e-05  -1.0700086410035087e-06 1.2199381211526743e-05 -5.6416250544203389e-05  -2.0854701225349102e-06 1.1334054392529221e-05 -5.3026304163601075e-05  -4.2665351243345531e-06 3.0849803433846699e-06 -5.0286296232492908e-05  -6.0707825898126779e-06 -4.9157097492749603e-06 -3.9638830987692810e-05  -1.4523060322657259e-05 7.0980536495843830e-06 -1.8945249996166921e-05  -1.2109299983392795e-05 1.0599423728833953e-05 -4.6819225244482642e-06  -9.6445049552558260e-06 -2.8732084710927164e-06 4.5889484414689839e-05  9.6365390895127122e-07 -1.3484008521383257e-05 7.1956424813540709e-05  -3.0025836229699014e-06 -1.0646683372510392e-05 5.4462776132853341e-05  -3.6431698240198988e-06 -9.9983658038928629e-06 3.6838621152578126e-05  -1.8793328084077394e-06 6.1266358204276049e-06 3.2001775821328127e-05  2.3008550589038790e-07 1.2792900982912510e-05 -3.0006537588687003e-05  -6.9269975482456414e-07 -4.5313936359353872e-06 5.8167580572813675e-05  -7.1971702437165340e-06 -8.6013411248631857e-06 2.1383302698469631e-05  -5.1859568853317940e-06 -1.1535058509323307e-05 2.4830687276796791e-05  -2.0049471874881720e-06 -1.1745508020252332e-05 3.9076750750408621e-05  -2.6943079306718406e-06 -1.1883243909264252e-05 2.4896969967794158e-05  4.1319947128151993e-07 -1.1563053032127651e-05 3.9297573177208401e-05  5.8637106619761267e-08 -1.3366073307386907e-05 2.5655592432114536e-05  1.3090387349836858e-06 -1.1266523161709612e-05 3.4133652749523778e-05  2.7345958289097436e-06 -1.3810480612375722e-05 1.7620924348480442e-05  2.8980521271108422e-06 -1.1430611637222099e-05 2.8815850714862942e-05  8.3359805802786177e-07 -1.5424787569330000e-05 -2.5496151067806095e-06  1.1245356465732148e-06 1.0881094289549299e-05 -3.7754214193089329e-05  2.5657971861798541e-06 1.0947903072789775e-05 -2.1115396934919954e-05  5.8507834433424733e-06 -1.2712181751484527e-05 1.0736331095189636e-05  6.3866492576146226e-06 -1.0629656676831555e-05 2.3536765688979451e-05  8.8072635115088650e-06 -8.4659432416479228e-06 -3.7949285653843730e-06  1.0579940388044864e-05 -9.0537575779080254e-06 1.4990409252859111e-05  1.1611013740397052e-05 -4.5547850797952544e-06 -1.6508857246619927e-05  4.4492957261772025e-06 -6.9281176932253560e-06 2.8100291684399418e-05  9.0367198878062501e-06 -4.3325820661201946e-06 -3.1812672767728225e-05  1.0056578465827241e-05 -6.1607992092910333e-06 2.8966506822443263e-05  7.6228333823121539e-06 1.1967742489912711e-06 -3.3985958474396131e-05  5.1702425089431006e-06 -5.3143746561015506e-06 3.2618239622364870e-05  9.2117001141538665e-06 -3.8220442663155319e-06 3.4888885417478697e-05  5.0424691406794753e-06 9.7952678697514591e-07 -5.0736064020537437e-05  -1.2660549422806429e-07 1.1875519211021981e-05 -6.0147892622498017e-05  3.0089469045990361e-06 1.0175680800138327e-05 -3.2689554365124611e-05  5.8095612178949797e-06 -6.7134170682201985e-06 5.2129358154091503e-05  8.6928743258984235e-06 -1.6858912671053281e-06 4.6432228358223477e-05  1.2518378987391651e-05 2.1117376210192578e-06 -2.4158553740830870e-05  1.9930325164838045e-06 -9.2940667102385696e-06 3.8495883369337907e-05  3.0889730403618982e-06 3.5881249173189520e-06 -3.5148205743801807e-05  -2.8933634299766539e-06 1.8743774832716909e-06 -5.9253220827034762e-05  1.3672203762402883e-05 3.2652392041896761e-06 1.7536038295484716e-05  3.7478864505783743e-06 -9.8601961259874281e-06 5.8274227490094990e-05  2.2485237330336066e-06 7.1299138135713476e-06 -6.3351044441518483e-05  2.7616258943832435e-06 -3.2115285556132531e-06 3.7020511460415051e-05  6.2418351175293104e-06 1.6700912242610190e-06 4.4783703900018522e-05  7.0376272718973066e-06 -5.4683458452228865e-06 -4.2764945506861274e-05  2.2975733184636500e-06 1.1707965579290245e-05 -7.6956311100402095e-06  1.7000701545173895e-06 1.0097802253712679e-05 -6.2863932294240788e-05  4.1008450055019867e-06 8.8378381926475312e-06 -5.3072666414578031e-05  3.4969594532331161e-06 -1.1081697326097720e-06 5.5423778616317425e-05  2.1439716532592053e-06 2.5314010623720832e-06 2.1136007855916647e-05  2.2517387678065504e-06 -7.6297033048702909e-06 6.2257795147455946e-05  -6.8995691460872364e-06 -1.4440488185309152e-05 1.9107109050171054e-07  5.8531848685210234e-06 1.0599008085482914e-05 -1.9618983995034574e-05  6.3544359773411705e-06 8.5754959528325945e-06 -2.5909237957887226e-05  -2.3451501166558922e-06 -5.1310740549418049e-06 -4.5116715898934270e-05  -2.2776650392739141e-07 -1.7409162287769974e-06 -5.5749369427820974e-05  -4.8812016707118584e-07 4.3776759626702143e-06 -4.9198026106499008e-05  4.8249430097601035e-07 8.6301504995787472e-06 -5.7978296629502400e-05  1.3088691058599357e-06 1.0385021880051422e-05 -4.6391643238836039e-05  -5.4543366238850769e-08 -1.0901642220944225e-05 4.8869844279095226e-05  7.3828918049354179e-06 8.0904983704573890e-06 2.8888696440570380e-05  1.2136279686619380e-06 -1.1939751042525450e-05 5.9021289545117438e-05  1.7538376201685186e-06 -1.4544030541233562e-05 7.5154841112780776e-05  8.7117681307338088e-07 -1.0964782047065677e-05 -3.6089701374322098e-05  -2.8739952015147882e-07 1.2319810967897794e-05 -7.1085545329670324e-05  1.3127510054034162e-06 3.1544165409004537e-06 4.8745703434499568e-05  1.2633314910448204e-06 1.0386521789495052e-05 -5.5317943324580442e-05  3.3020962168187403e-06 1.0339664182132116e-05 -4.9602412708068204e-05  5.5875039995146200e-06 5.8515685892844670e-06 -3.0334911351158064e-05  1.0845410541987144e-05 5.5064084174308965e-06 -1.4302581513100779e-05  1.2493133898300839e-05 -6.9630959135564877e-07 1.0061111511552932e-05  2.1257097594027190e-06 -1.1975309563098762e-05 6.0066669069850281e-05  3.3792285579081700e-06 -1.0575749721420773e-05 4.4561129982277812e-05  9.3986564181920471e-07 9.8694030812150307e-06 3.8164681911676583e-05  6.1511909097293587e-07 -9.5312479414398003e-06 3.8579843702659729e-05  -5.8298807543416263e-06 -1.0678089185717829e-05 -2.8529529558102641e-05  -7.4230698663931824e-06 7.4709705356035682e-06 -3.2646336542655545e-05  8.6732454377312099e-07 -9.0191640995259358e-06 6.0887794639329410e-05  -1.7729998033941766e-06 1.3196412379224934e-05 1.6301141504686707e-05  2.1064175058213388e-06 2.9304538307059276e-06 -5.5871451308009113e-05  -1.3446373328760480e-05 -6.7990085029969681e-06 1.9223064766795817e-05  -8.8251480802337857e-06 -8.2175995523637811e-06 -2.9300286142577488e-05  -9.9451264302519917e-06 -1.0428233036125282e-05 -3.5468163858952932e-06  1.1750411711173527e-05 6.6449182497475829e-06 2.7788609572670266e-05  5.0965146798620811e-06 -1.5614052461644102e-05 -9.2593580282665160e-06  7.6940756397302694e-06 -1.0930898841067042e-05 -1.8768080506746923e-05  1.1461331042626943e-06 -3.6466483670461143e-06 5.6396132419720121e-05  1.7853659905749490e-06 -1.1144004448988728e-05 7.0663880956164650e-05  2.8288326800211096e-06 -6.7166820476745086e-06 4.7636911713362503e-05  -2.0458915040401518e-06 -1.3220639763715011e-05 6.1985518011335350e-06  -9.8983421557115702e-07 1.3248229021534709e-05 -1.1712064820440960e-05  -3.8116327457141747e-06 1.1043069146188134e-05 -4.0070342281762904e-05  -1.5224161283543932e-05 -2.2086046648512799e-06 -1.6462129596799857e-05  -2.2859772610671064e-06 1.1040999434815397e-05 -5.7205206852886022e-05  1.1134180718962915e-05 8.7177981588018159e-06 -3.8658427997528135e-06  -3.0110069340437198e-07 1.1797178794678177e-05 -5.0756172132055598e-05  -1.0050606505530523e-06 -1.1003089973596901e-05 5.0620911040959083e-05  6.7709827969325883e-06 5.9089820423105777e-06 -4.2792444357068644e-05  -7.7036738304705863e-07 1.4731512826657541e-07 3.1415020436025366e-05  -1.8443162239882841e-06 6.2672316907675858e-06 -5.2812379834278229e-05  -2.0959205954783983e-06 -1.3394222407947982e-05 -2.2097121010506471e-05  4.0908593701832597e-06 -1.1047464223942750e-05 4.0938363646175801e-05  -1.2068065091915726e-05 5.7518383888706995e-06 2.4718361865832512e-05  -1.4296951398774580e-06 9.5317096927301582e-06 -6.4815266231483130e-05  -4.7055794655846533e-06 9.0561426281979953e-06 -3.7151271218628323e-05  1.4728439798273521e-05 -4.8220189204549505e-06 2.6769765408183566e-06  6.0161042825660551e-06 1.3454867203021395e-05 -2.2770087897824119e-06  3.2217917797964580e-06 8.8903731892857411e-06 1.4774308211337365e-05  -1.0575976370750058e-05 -6.2808937808569722e-06 -2.7089484599284266e-06  4.3310047451075283e-07 6.5529930917003660e-06 -5.0359741475966757e-05  2.8875214862488113e-08 -1.3003325746776775e-05 6.2013788237294301e-05  2.6327170747715620e-06 -1.1617243498543678e-05 6.6700490577889775e-05  4.6203976527176650e-06 -9.7120048713047158e-06 -2.5725091392319807e-05  -1.0491694665328820e-05 1.0665901624757768e-05 -2.6233531175703873e-05  9.1135406168890723e-07 1.3151012244670621e-05 5.1922453163615828e-06  4.0380902219011062e-06 -1.2247787216025576e-05 6.4414083019150552e-05  2.2896131847654637e-06 -1.2199865098065106e-05 6.4403788567380421e-05  2.9492277519240575e-06 -4.5738434289586140e-06 -4.7775228213153903e-05  1.1305018591131721e-05 1.3350441632229265e-05 6.1040407863391713e-06  7.0837045743431254e-08 1.2060045561827052e-06 -2.4306830703628398e-06  4.1066905957930929e-06 6.0533019627748279e-06 -4.3013038856694731e-06  -6.9854828568022918e-06 -1.3477916318460342e-06 -2.7567882403322759e-06  2.5051420844319840e-06 -2.4911950996087538e-06 -2.8282343787837446e-05  -3.6730570008448488e-06 6.4083334885967242e-06 -2.0772347427171292e-05  2.0762436646373573e-06 -8.0378569329282030e-06 4.4690375859505711e-05  6.3182843444272842e-06 -1.0177818505540155e-06 -3.4664438840224086e-06  -4.6730283359417436e-07 -9.1811096609915240e-06 2.6740824700957764e-05  -3.4699162172200349e-06 -8.0344435250518343e-07 2.5664126157766746e-05  1.4241917798616165e-06 7.0901246929975044e-06 -4.1039500944316408e-05  -3.7460292126187363e-06 1.4923968928202699e-06 -4.4048605718294609e-05  1.3493247400144488e-06 -2.7115320524512665e-07 2.9462654436816120e-05  -9.4621715974898648e-07 6.0750048789186966e-06 1.6322567950461130e-06  -4.6284772333665546e-07 -1.0489227096801161e-05 5.5469353622836187e-05  4.8863014835903447e-08 8.7137281061987760e-06 -3.6264942572085416e-05  -1.5511174435611825e-06 9.6935763495515856e-06 -5.3392990581825449e-05  2.9511432463435769e-06 -6.7337566923818380e-06 1.7196131723672130e-05  7.0878068097945598e-06 6.3467470809785209e-07 2.3020435217525437e-05  -5.1562833312584237e-06 5.5664086590956816e-06 -3.6238444526861224e-05  -3.2657148881404550e-07 5.6592789150238821e-06 -5.4383113082199919e-05  -2.0511749477298068e-06 -8.5507016578588979e-06 -2.3187687625823374e-05  -3.1293497486123509e-06 -9.6270437976686062e-06 3.6112200561319691e-05  -5.1214118098931689e-06 -8.5057046223589215e-06 8.1380667678138272e-07  5.5831664830251847e-06 2.8161407515045133e-06 -4.0796637614426712e-05  -1.1183629217360650e-05 3.6924770762534289e-06 4.7758352818573630e-06  1.2412493375491897e-06 -1.0925167435394386e-05 4.8951402658980885e-05  7.6212420667749292e-06 7.1577154545560319e-06 -2.7623709283050509e-05  -5.9179526107762377e-06 -6.0226900189176289e-06 3.5338316167813792e-05  -7.0669554100272297e-06 8.7578162887681649e-06 8.7099187667325182e-06  6.2537889570715326e-06 -7.8322728099579133e-06 3.8041455295630513e-05  -3.4748866885561401e-07 -6.4727097656244069e-06 5.0437661250331839e-05  3.1808979181860467e-06 7.6725712592383916e-06 2.3049549935535206e-05  1.6644136035471454e-06 1.2037209183647502e-05 -2.4048467009310479e-05  -2.3004885684058591e-06 1.0884856546702433e-05 -3.1565278701806059e-05  7.6433674952511333e-06 -8.7945344974006266e-06 -8.0783457005231000e-06  -1.9777362985677356e-06 2.9103334047461763e-06 3.9962409257029939e-05  2.2621101722650387e-06 -1.1613930842071841e-05 8.2603372033544391e-06  3.6029917139505547e-06 -6.0287463330358649e-06 5.4562289507585545e-05  -9.2658063250087357e-06 -2.1035127635801643e-06 -3.0660532897137985e-05  -9.9986792915699329e-07 3.9736517727846329e-07 -2.2601745033554730e-05  -1.3381640375662716e-06 -5.9205269028357156e-06 2.6403322703466892e-05  </DataArray> 
</PointData> 
</Piece>
</UnstructuredGrid>
</VTKFile>