<?xml version="1.0"?>
<VTKFile type="UnstructuredGrid"  version="0.1"  >
<UnstructuredGrid>
<Piece  NumberOfPoints="201" NumberOfCells="657">
<Points>
<DataArray  type="Float64"  NumberOfComponents="3"  format="ascii">-3.470636306513493 18.11124832669913 604.8364466573896  1.002769502686112 -18.59830542033678 -606.0465062508271  1774.557004810909 -2.052924660571059 -611.2093086324908  3310.48181025285 12.98902202587773 -567.3868090891011  4454.417444124989 22.92397219250669 -459.4034681840927  5151.834409830297 27.02979924038341 -272.0854473905894  5386.179067157602 27.9827807205888 -39.80939998461654  5152.151432575529 28.73452695594269 192.1014654124256  4454.188977641087 30.66489111690711 382.4468824150422  3309.033973658745 32.2530612297861 502.3969509422143  1772.298229763551 29.49281764667191 572.4276712263088  2207.761078536692 -1453.055884489982 -771.8906291304603  2220.389565107747 1162.779417176904 695.4241698045049  5124.332776522862 -1245.768427463027 -269.7283559639644  3790.182106205871 -1372.967207551447 270.0594350364682  4720.538181664242 1321.950949772323 403.6848205766245  4704.95615679556 1317.478272171556 -224.701413460105  2487.589526954429 1311.464989807288 -412.0478380946157  852.9932659300888 -1290.037195014242 396.9685125746444  3768.222834181011 -1275.375872448184 -653.596721808313  2613.765202204573 -2523.326265598856 -801.5254940386843  3829.123338169966 -2446.46718928515 -638.8963591542398  2605.43662571282 -3500.53354153537 -724.2877509268882  3646.50180758236 -3265.609842227114 -515.3428343581693  2270.591310169582 -4142.797501139012 -565.393980275118  3241.443512309675 -3712.303257072841 -341.3169284262157  1685.365350059127 -4422.218389082405 -376.1385579917612  2479.827579197596 -3852.17834027454 -163.310416851501  875.0244260657786 -4323.846467239668 -193.2922956976691  1605.3340553482 -3549.489909931152 -4.208599983379646  -89.49885744727563 -3822.989033827251 -21.19095364538379  3820.007126734939 -3021.478519901671 -117.6596609332111  3787.770011491749 1323.992226500524 586.0098712308956  3786.560121470798 2511.440228370653 591.4888266129204  4523.359379042877 2397.316771980775 360.6769725238756  599.9081869095137 -2862.878489846209 148.5642940452537  2252.705410480679 -2494.278676430249 170.5988308861332  2653.454951655779 2418.048657271174 752.4128704915157  2513.602756194197 3484.910389881194 710.1596489469227  5135.400190380868 -1214.100351429657 -41.37162762483059  4509.729340768591 -2532.089260368019 -259.9193500152552  4715.443424593997 -1268.259512419934 -474.8095668176055  876.013385440331 1303.378895813068 -414.2328655180161  3756.408019797105 1280.923384166273 -364.946423867894  3762.308307399031 2493.598871347733 -139.0478789084877  1095.807277601623 -4201.882976293736 -735.269456125638  -813.2074029070408 -4386.351436592974 -195.6981630137589  1118.658522378621 -2613.803329821512 -871.9080157124656  4495.03175402007 2425.186125566142 18.08523212684822  3371.616559916379 3476.275799153761 101.8041913404176  2437.772013560155 3396.749793385071 -38.55158650658369  1903.410597234716 4191.475254160424 181.1968739154134  866.7015706043588 3951.05346032483 50.79143921278954  267.484717169485 4518.018136067381 249.4391436044328  -834.7503147670117 4048.771450042624 98.10089373490446  -1373.922999229307 4424.643080074761 294.3308280736487  -2461.001637458874 3789.822355434628 135.7125668361434  -243.6388752232622 4684.218332993171 468.8405256528548  -1776.045523888271 -3684.776265100008 -4.551402145545036  -2404.176566553384 -4050.81579119497 -182.313405425339  -2868.298475031042 3923.576885039477 323.877089230018  -3816.471698867525 3074.29025913933 139.8708402641861  -4048.764149863739 3062.144491893742 337.7160233927547  -4774.145158410386 2014.501201535219 105.4188199933736  -4838.154664758415 1911.971221682931 330.5294826609452  -4288.089442849462 1916.717717939958 -99.71978467407351  -3919.852176720776 2841.970643179608 553.3630871499323  -5076.560577426074 821.9688238796019 -99.0759285202401  -4517.849398289723 1577.02101595673 523.2237114686054  -4396.931325358107 519.5369159546666 -323.0229821975411  -4887.294016693013 -648.7453594734146 -335.375253706315  -3388.80087439712 2402.010325601579 719.556815806068  -805.9595122803134 -2000.0125174999 304.8507907176467  -3302.228899458549 -3160.623188875601 23.73666884937956  -3987.881114518896 -874.6243907353304 -529.143159140707  -4246.875408622596 -1993.919290284592 -516.9563981488718  -5187.793275420782 513.3232886737655 283.6511839631891  -1830.05643804178 3167.362513235423 -67.37894821404379  -3793.624477127687 1021.542417492593 636.5996232196368  1216.110429233618 3235.569536701207 849.1383175860718  -4997.599268151072 -1631.775694739751 -242.2572446215961  -3272.573703284955 307.0940927932764 -463.6781998276786  -2533.776564349355 1850.596985517446 787.618649153884  -3119.493199046602 -2155.317401576897 -701.9998105698254  -3211.538884904934 -3160.855493571336 -639.3773661919248  -2662.628877198634 3513.056404379417 714.7015751499922  -1379.229737585016 -4545.674591554221 -379.6358318424304  -2709.378349185301 307.6418014542551 630.8296456653618  -3928.442769106563 -469.323250757462 468.9092440141831  -1891.252088728121 -3183.261037939286 -807.3275366218762  -1864.824153156523 -4009.208198836772 -697.4266714031476  -1663.311545915265 -2050.455078422248 -801.5119084445811  2747.366896130292 4069.748672325323 342.8060172670393  -3693.814541816657 -3375.5999410214 -160.8589730253327  -4457.463734036766 -2300.053059712951 44.75782335676834  998.6083825869317 4112.725335714369 755.8851144408873  -334.4242937354196 3724.597682152837 851.5205439802294  -106.5589687748314 2841.728469164167 885.3582901939604  -1539.974158733613 1212.909198467368 763.9841152271485  -2532.94279545682 -2605.749063667292 197.7154697623857  1335.585582062364 3156.642139487253 -114.3954437032069  -3041.558080299698 -3791.456810358929 -505.6760604791596  -399.0851654091915 2426.465992751279 -224.6866537720692  -933.9457646762623 1031.566279818738 -436.101902836706  -576.9809840379986 4399.040949764716 697.2990163958116  -1223.043620669484 -741.5565108563901 500.2327817591371  -421.0851165917742 -3897.684202203749 -825.755071241448  -2593.437799002168 -1199.446558767256 426.2502862907214  -3887.663997624667 -1918.287211448049 241.5408293366218  -4777.835995810696 -934.8966344698208 273.960992780005  -5169.779470337356 -1203.224027172807 36.34280844610016  -5361.584263803983 -181.0178487176423 -41.00431860830437  -2150.013553482906 2045.709515357955 -251.3039368544205  -3211.191550028365 2246.929833830713 -166.5252139809459  -488.4317433227877 -4439.682705440217 -683.0805766859293  -164.4247735298322 3518.513119772921 -41.87125601388657  2172.913657642349 4155.958627020433 581.4723514686183  4689.51586609835 -1206.913198259664 157.5734156824809  274.2917683414144 -1389.833506168993 -783.591697428178  821.0371783791408 -4577.587289979778 -567.1274037585064  -1669.712964091171 3050.919992406025 855.916222492495  5161.708586904125 1221.655078877471 -43.47899434227513  3466.321018971791 3446.47885418059 495.8614017775673  4070.124963067952 3126.110720133316 249.5214057108281  -4138.021847598001 -2840.036609490988 -428.199634757509  -1753.56648265995 4408.695621593331 497.1510138621093  -2967.62481640503 3805.474579118426 527.3828607061364  -324.500404867949 -2947.472284716032 -882.2708334772424  -1341.89145559922 -569.2687412840932 -658.063580471759  -2784.295571428318 -895.9579360546066 -637.605097747375  1264.219535574189 4571.169321194563 393.2939040062395  115.3297030271743 -4663.87970234234 -373.1431800756978  3005.673428719612 -2983.251922718376 32.67565549401088  5168.866529653213 1237.773772878603 176.1808261652277  2465.870947932531 -1266.205762026854 364.552172410665  -4565.952677047275 -2548.353733111728 -181.8390365315066  -1022.808965995714 -3161.079949668825 113.5740042265154  2734.001584157929 2333.71598006254 -239.5704600487604  -4683.828718493734 357.0636568620345 450.2346420430978  1212.090117846422 -3542.315263937336 -848.9940798982253  1398.131797276648 2336.155922876353 829.5185341032753  790.314201400262 4552.509074148233 594.5889179317641  -3374.008009908479 2954.972244986283 2.629727204785008  4505.816423294355 -2258.405698435651 -448.9565624618367  -79.861550769662 1280.243107115174 767.6353167033153  4116.199386731738 -2204.693811432571 65.29834595264732  -5218.793926265412 1104.079881166369 126.2689851160043  -2798.397833258841 -4050.186876870466 -357.8181698751295  -1721.952697879652 -4406.955065249181 -536.5662237208516  4842.218395143031 2118.499273453064 150.5882588320553  -1242.813688555522 2376.204088596588 861.2657357024387  1590.489119783713 2159.956836304264 -285.1084399324495  -1926.915524132661 328.5265947581282 -517.2282711624249  -1951.215790003774 4115.6252969845 660.776046174852  4586.846430049358 -2098.191633625794 -35.35709109983182  -395.9303870941096 -4664.925967636955 -524.001756323338  -3566.651824990418 1219.725399744754 -310.1133939077189  -2476.357845357479 1040.035125084735 -396.8496128344936  -1504.848337108633 3807.727552833152 794.8993379753356  -3800.37136831191 -3370.029655388572 -328.8699010575323  0.03155741869477326 0.1043968563995328 -0.0668874934107975  -1826.158515181084 -1909.197717582585 -211.0583152849021  2745.205158254945 760.1186439937655 65.83402505565485  -1080.594994222217 1989.687285378265 414.0422045883086  2037.078794985224 -1397.186231945337 -79.26389375701655  -1350.593397156576 190.0917316716458 -229.7529265098388  -2815.577424604161 356.7572398874171 76.09570657406628  558.4074111717634 2255.704828307839 170.6018116226186  1908.156717863443 -1104.715724120111 -356.7567676462741  -1503.87388378159 -216.1352533432164 252.8793571206469  1439.798661869451 1695.915443572776 428.7613003506453  -541.5746251816672 -1927.817940326929 -488.8822886264995  444.8142824308168 -2748.989323994957 -353.4749467623624  1153.471514405813 738.7896940948046 -214.4151485905831  -464.98866250
[...]
<PointData  Scalars="Pressure"> 
<DataArray  type="Float64"  Name="Pressure"  format="ascii">-1.4304772712408192e-01  -1.4521683618490205e-01  -1.2639869473371865e-01  -8.9835989645284081e-02  -4.1865154059906720e-02  -1.4440493708824309e-02  -4.4619196603924568e-03  -1.5066703914299456e-02  -4.2945380755831764e-02  -9.1316392985147876e-02  -1.2963962188771752e-01  -1.0351279415719744e-01  -1.0841894666350409e-01  -8.7762547481542268e-03  -6.6234831555943383e-02  -2.3581855120058164e-02  -2.8069328607821346e-02  -1.0512240613657720e-01  -1.3899624107951222e-01  -6.1174554786016050e-02  -6.7260990193921594e-02  -3.6265301440859862e-02  -3.9791768555687668e-02  -2.2104316912987112e-02  -2.7832128224604152e-02  -2.2451281110010868e-02  -2.9989835664873749e-02  -4.1062291999052779e-02  -4.9167162920600055e-02  -6.9262782901217623e-02  -6.9996072270401499e-02  -2.9814616804772365e-02  -6.0392512648338698e-02  -3.8079205099396045e-02  -1.5646473127778351e-02  -1.0435912342748539e-01  -9.4868373206286299e-02  -6.9109499082935871e-02  -4.1756898979621572e-02  -8.3038729733461367e-03  -1.2842829635828249e-02  -2.5664137653002114e-02  -1.3830058244037718e-01  -6.6312169973630750e-02  -4.4022661326361838e-02  -4.1448282581996627e-02  -4.7078659267315019e-02  -9.3473469008179294e-02  -1.7574167617924279e-02  -2.8966571230176277e-02  -5.6189994081442630e-02  -4.0416537687112501e-02  -6.2999414649342111e-02  -4.1875439400940510e-02  -6.0232208145950789e-02  -3.6772076731432977e-02  -4.3525311980056984e-02  -3.0899083973829441e-02  -6.2511527895593652e-02  -3.5099273867048371e-02  -2.6554736715458518e-02  -2.7028602270912885e-02  -1.6010435338594330e-02  -1.4201623527106884e-02  -1.1939398213023211e-02  -3.5832530181681622e-02  -2.1546697466218411e-02  -1.6196167106263416e-02  -2.8259278634606814e-02  -4.4411805726041469e-02  -2.5029444872952819e-02  -4.8731180182930114e-02  -1.2594892640101982e-01  -4.2345762141590672e-02  -6.0149557108615324e-02  -3.0165180641436532e-02  -9.0518387668187192e-03  -8.0683603413263652e-02  -6.1940101594804682e-02  -7.1833877273997093e-02  -5.5149697943164405e-03  -8.8964545393213107e-02  -8.7166630436107714e-02  -6.4294005824350409e-02  -3.6939209864805457e-02  -3.8821299375580626e-02  -2.9367600101691413e-02  -1.0622786001786742e-01  -6.3537135479009257e-02  -6.4259011814288544e-02  -3.6973831887839259e-02  -1.0287874947336290e-01  -2.3177335101058613e-02  -2.4159517759925773e-02  -2.0026057430244770e-02  -4.4877887975520156e-02  -6.1106582040368222e-02  -9.2975680951947151e-02  -1.1702330846508847e-01  -7.9828110447290643e-02  -9.0197415703303821e-02  -2.3133175151868954e-02  -1.2196016655875952e-01  -1.3563136129945294e-01  -3.6398776449226983e-02  -1.3977221812358950e-01  -5.4699118228479379e-02  -1.0341480440874465e-01  -5.7418506799727438e-02  -2.4661105985384478e-02  -7.5217344659363654e-03  -2.6298893694924282e-03  -1.0096168010240053e-01  -6.8357499717150591e-02  -3.7187926005503094e-02  -8.2088400230531364e-02  -2.9653355785757066e-02  -3.2914108014730818e-02  -1.3260982940196395e-01  -2.8987110576428325e-02  -7.1742347832281866e-02  -5.7375536457733457e-03  -2.0322225399031116e-02  -1.2585352887289552e-02  -1.7128792695073690e-02  -2.8324847205615150e-02  -2.5818982047853632e-02  -9.2118907562636673e-02  -1.2897514521069203e-01  -1.0126822550014404e-01  -3.0541217878530716e-02  -3.3755625811832488e-02  -5.3130988456129423e-02  -4.8854509021758145e-03  -1.0386334994926853e-01  -9.0575738897136059e-03  -9.1260784219426988e-02  -8.2598657912358375e-02  -3.2888727994096173e-02  -6.1121679170306281e-02  -1.0057100489258469e-01  -3.1793813363514445e-02  -4.6614537900277767e-02  -1.8392328174227882e-02  -1.3702231335305931e-01  -4.0552741390686695e-02  -4.0375033069501793e-03  -2.1566093501491520e-02  -2.7409928816649637e-02  -9.6400467654737358e-03  -9.8211319281830564e-02  -1.0927750483058971e-01  -1.2394561396728730e-01  -3.1357080581707178e-02  -2.1814325275160758e-02  -2.9290551970532402e-02  -7.7151688536919102e-02  -1.0742505533898375e-01  -4.6367750420104936e-02  -1.8659617276884491e-02  -8.0859178785881711e-02  -5.0015237796655641e-02  -4.6301583299506718e-02  -6.0623373360916270e-02  -5.6605394228058117e-02  -8.4776798724662872e-02  -4.4780690650338621e-02  -6.1349223887402576e-02  -6.3057504618542606e-02  -7.9661768272275571e-02  -6.4161200411362779e-02  -7.0074404798574214e-02  -5.1089443376304756e-02  -8.7970325690476400e-02  -7.4865982521260990e-02  -9.4235732923424270e-02  -5.2944176892346435e-02  -4.7997890863027005e-02  -5.4422423229189831e-02  -8.9129881529525459e-02  -4.5089280030040618e-02  -5.2276160758271746e-02  -3.6443319205761056e-02  -5.0955982581015948e-02  -3.2075532029350172e-02  -8.3895533912362430e-02  -4.0143127064631731e-02  -4.7194600044801367e-02  -3.8351106360197035e-02  -5.0318453046782508e-02  -9.5392915849745782e-02  -4.4353709257831345e-02  -4.4851111250691994e-02  -5.6439953478183237e-02  -3.3876707381607980e-02  -5.2000680309718585e-02  -4.4471164860273020e-02  -7.7629743955575925e-02  -3.7095711016597560e-02  -6.5313271147117241e-02  -6.7166684159885762e-02  </DataArray> 
</PointData> 
</Piece>
</UnstructuredGrid>
</VTKFile>