<?xml version="1.0"?>
<VTKFile type="UnstructuredGrid"  version="0.1"  >
<UnstructuredGrid>
<Piece  NumberOfPoints="201" NumberOfCells="657">
<Points>
<DataArray  type="Float64"  NumberOfComponents="3"  format="ascii">-109.2933345319047 -7.774364624229955 10626.5790627904  83.26731700535329 8.423437815570782 -10622.53879898457  3983.581933608009 3.6688395054474 -10092.0373695161  7265.159763125445 -6.747753637992547 -8482.061168921975  9921.120941018326 -3.123131813223643 -5995.71798966864  11729.35592294189 4.191886854638558 -3043.493471680634  12301.48173789955 5.773117582826618 128.4916308593585  11653.06706174702 -13.91405783349573 3322.24005738899  10036.13740133346 -2.886711054643839 6243.604525015747  7344.03940444767 8.342984771785147 8543.260986022447  3728.621041039505 6.179315800565945 10075.87274114226  5115.129313716076 -165.7341211942476 -9458.529241391669  4878.722762642042 128.3669296222536 9622.918833275882  11985.6080113878 -158.3572059897981 -1448.399292384164  8818.052707939773 -150.6457839921207 7255.75666157215  10888.52887165698 152.3256822966511 4611.550005476173  10893.0694012878 156.2008384246866 -4370.598432044979  5631.827225377237 149.8861829922525 -9273.610856051482  1777.666569449562 -151.5900606243786 10337.81039263493  8549.78215352657 -151.8880142749939 -7223.72549744107  6450.377188338241 -216.2211329732621 -8142.569974693172  9518.145552735239 -202.9877803946129 -5444.856570275211  7342.704957430218 -153.9736867974225 -6017.828578144615  10125.06071109418 -184.9636927613263 -2724.693167472201  7423.01922734978 -80.54858706229223 -2801.098666752614  9625.200948687007 -142.1819102053915 773.5416670758416  5836.523942303175 -55.87773041938165 1470.246479850197  7464.960833913165 -117.3929549116579 4776.027211719934  2848.504076269864 -66.37203279685089 5601.825779313  4453.852375197905 -143.4057328079435 7830.115890903804  -264.8061438867534 -130.3782263893606 8238.018564141874  10146.56771135902 -199.4880037984273 3580.286957490111  8718.857791643262 143.8314786526605 7382.882702605901  9422.065022793988 197.5199586005225 5896.625004697818  11147.89473255716 205.3541218976411 2671.853371969399  1376.452821797758 -199.0026205210639 9623.827340921644  5539.462781470855 -179.9581216867878 8757.592656154477  6363.78565506375 198.2906146712969 8383.980865054302  6897.543279516554 155.5606117855338 6670.147982563144  11967.31082973355 -157.5050780171049 1657.862679009343  11490.56709017523 -216.7924677755274 290.8001486983189  11001.12241400994 -157.7047814490082 -4240.421682397998  2058.989257622371 148.6757043116844 -10353.06714056145  8456.56086003141 143.5324550712513 -7318.868431118869  9229.716347736939 209.4641438877952 -5758.957208477633  3609.075429095618 -75.14946339361198 -6064.905391108399  -2686.748037003717 -63.88824256834077 5321.443117240336  2933.189803750533 -183.4942078464717 -9656.793807587272  11206.76910496262 231.6583565579474 -2509.197027407182  9483.33634549467 165.9783962526873 -3488.92756303404  6608.620470270982 176.7318148549531 -6973.847569859599  6022.44541999005 81.36954247731089 -4470.52446518791  2560.10674156061 110.9252820185145 -7499.448728266858  830.7242218804851 51.05320702380023 -4536.140009183777  -2576.248233341249 92.26220502395412 -7131.96485088242  -4699.488790405185 57.57275256644269 -3385.708921379675  -7292.651959186809 123.2041971372181 -5285.368704559778  -994.0194144055031 31.85605922314637 337.996003624496  -5036.198407987477 -147.2023672881401 7326.141378990906  -7366.686622832667 -104.4343419215606 3862.290808680256  -8824.62378179583 107.7246424578588 -1541.327505768178  -10220.96669743249 192.8006003744495 -3297.722126944104  -10862.58134743304 195.6605274158866 128.8687471704395  -11595.45777270483 213.8784706855157 -1931.895908850124  -11639.25008216685 209.7607565376768 1505.785917434923  -10260.41584569977 213.6400836185214 -5177.111393695644  -10197.92503865343 213.5094935505785 3783.485410602936  -11671.83136547023 116.468976548884 -3226.274572288992  -10580.86767895327 192.5538135912406 4707.711936272741  -9870.744377124414 70.48313687719615 -6296.534760545889  -11107.67558697348 -77.01494717282218 -4513.729553216242  -8365.981255079883 193.8485937944296 6882.841587945774  -1954.25902875867 -199.5352569322226 10081.31781021038  -8738.25619307606 -184.7510025060427 5490.941951647382  -8914.603488273056 -110.0396282913592 -7230.452014307856  -10147.84079291187 -202.374198832661 -5382.769349800728  -11788.68805277373 81.81363302249547 2532.057745003315  -4839.091745387207 174.1610734167335 -8393.381362574117  -8602.980492865972 109.8463013499403 7380.150874315488  3012.419744352736 178.2831014297445 8890.804235176749  -11804.67732069863 -170.0968199236138 -1990.634995786821  -7184.363081708933 43.52814620578592 -8642.150432035451  -5948.326804896688 186.7559889092743 8912.366969104487  -7352.153375522065 -205.7459537599404 -7961.23394675955  -8516.058764854462 -179.4150815973238 -5936.717477898189  -7530.155196197481 150.7433210553629 5868.366060207263  -4774.678203116593 -41.36408869004559 992.9120649855757  -5982.608204181397 41.30882983742496 9276.76304088434  -8777.527233474524 -62.98509168320049 7335.951297804275  -4872.037383790515 -175.870927363681 -8423.772300755045  -5552.381142420551 -107.5724981095727 -5938.211689011989  -3845.886220597792 -192.219994978787 -9720.210771529055  8600.306485029705 92.08814097218612 -313.6605074516578  -10210.22884821307 -163.9072676604005 2129.425189986528  -10873.61387905046 -228.5267045351235 3402.657266722687  2899.247449004517 93.95698656265228 6824.971694700723  -1140.140774566097 123.3863263341371 8470.642059707112  -431.3062582837665 204.5340182583785 9706.945573240248  -3573.132451153401 137.4444338760574 10006.0984421486  -6209.266546584403 -204.5854923544773 8306.835474049745  3521.396636924846 175.1959272108817 -8936.911185498038  -8901.33236604054 -123.0962822249653 -3070.276927311589  -939.6961404268823 203.3598633198125 -9957.700777747354  -2080.535865919222 118.0735630110621 -10366.05745019842  -2048.106313973418 60.54363455945229 5367.473616890888  -2820.436953840118 -94.29994509155289 10272.14326560303  -1084.195813781301 -118.7494817811159 -7973.350033816845  -5812.396635032484 -137.1678671204124 9220.448906414174  -9186.540707533768 -194.1062792189267 6439.187685991498  -10850.54906551252 -125.9346323125346 4585.875536676452  -11941.17428057448 -138.2747270334714 1336.507019225857  -12214.76354897126 -10.35233594894081 -1052.061325766063  -5008.697052846217 186.5991535254218 -9296.101202895308  -7756.085831124663 199.5966139391708 -7607.99202683187  -1518.693932492301 -57.50030759124834 -5210.674920142998  -419.6512753219139 160.0613346338435 -8851.463206061348  6757.693702748171 90.12635835650185 3890.090412200094  10847.03048096891 -150.4071892422965 4799.524214400405  747.5044186531002 -135.3652637186108 -10452.33394668857  3027.836795795342 -36.68387291772343 -2561.003424182007  -4461.461271902576 190.4036515131862 8685.989155829182  12008.19660338156 163.1661380037748 -1480.451442003174  9614.421619863617 154.5400196310084 3387.134247107415  10891.76394006614 199.0958018882947 -19.44037139101529  -10696.32161677815 -197.7073565192231 -3132.486225297625  -6035.412209657112 58.36472048344067 1176.08064512668  -8956.493667277466 116.6924933113912 2481.138286407786  -722.6051434711137 -191.7100722750504 -9631.426704994059  -2933.663202435526 -61.94133927363706 -10305.85162594741  -6106.622607882297 -105.3887853400014 -9165.613559850868  4434.392306219514 42.91128321264741 -813.524782576622  495.1313686168908 -30.7676949404774 1968.36899516579  7874.929904234516 -186.6352457652818 6680.963267486373  11975.62499076406 141.2911289709553 1531.372652164009  5544.685955675595 -127.0008136021239 9305.399012571021  -11464.80214570712 -209.2617094844527 129.7065639643876  -2715.535093177119 -195.9835282376538 9069.089469113576  6533.08975681647 215.2418930757074 -8276.241677701888  -10537.94625971499 53.12696397469544 5244.875697194647  3529.774993950409 -144.1189972231575 -8290.4968860671  3136.377398416966 195.1228269330312 9681.534450089241  2649.883183332065 43.56089639685889 3558.138947736294  -8872.15686734625 184.7089632219025 -5810.660724519497  11194.13129856645 -222.3929659173814 -2770.475718995645  -322.7744353048888 135.7655156365234 10470.15023115505  10067.42776047178 -205.7799821684182 5247.036910597762  -12127.26534591377 146.2991069362168 -375.5856129957572  -8634.844755364014 -102.2597581824184 35.80141551231312  -5698.7212859545 -58.4742658679673 -2671.893598702297  11780.23000677073 214.3554369718063 33.43033739573409  -3135.343200150804 211.3656755165102 9650.253664646212  3859.771923051666 196.0300068626375 -9686.10300880763  -4184.237801784257 41.98472853613741 -10015.66419407163  -6263.660614922162 89.26900538013321 4676.41992811789  11164.36666599292 -216.3472495789547 3170.740416776327  -1341.015215246874 -31.85409976083194 -1772.885308409831  -8090.925634630129 143.2037448263957 -7856.166560101226  -5481.412793470756 121.4966688738411 -9444.200032848665  -4526.999150489355 133.0995897116498 7186.468590203447  -10405.05714061196 -180.2090502486597 -840.7185907340582  -50.3083476222728 1.448022024953822 -3.409850783983956  -5878.040406646909 -21.70036304291155 400.1357544744668  8290.887877401139 14.57798518363114 21.66724296483588  -3649.396177951001 23.76498698905496 3537.400283823164  6340.751785886985 -22.79786691758964 3119.778487232933  -3928.294063538193 4.000553768272081 -6542.663281778123  -8433.504546528025 5.127740195490812 -79.44149076399754  1799.312265414964 22.88716280629881 -3234.699050129701  5917.888530747749 -18.31467322508955 -4456.834635165031  -4489.415338290256 -6.845456327968879 6297.995429762522  4324.60435607082 31.49938160885354 5337.916617445866  -1602.748558782826 -28.93363907439095 -5893.681141854056  1647.394298770486 -14.1872865749043 52.64802289973731  3362.631240528207 20.34222533273685 -7085.43693516607  -1475.
[...]
<PointData  Vectors="Velocity"> 
<DataArray  type="Float64"  Name="Velocity"  NumberOfComponents="3" format="ascii">-3.0606526979632591e-04 -7.6071046584635059e-07 9.0161470832008459e-03  2.2107732863084400e-04 2.5780292996878316e-05 -9.0193124115583081e-03  4.1684861737170719e-03 1.4618325304885922e-05 -8.5889222649038650e-03  7.1001103391098320e-03 -1.1141305663238222e-05 -6.9988116367736154e-03  9.6338018480635924e-03 -8.1033923630725151e-06 -4.6322573555531684e-03  1.1559902463516219e-02 1.6362943464562230e-05 -2.1335876242396540e-03  1.2076240907891833e-02 1.9694353750113720e-05 2.7378613798741786e-04  1.1379873477094606e-02 -2.9273527470101758e-05 2.8181697592307721e-03  1.0036425334801331e-02 -1.6657802311384216e-05 5.2667320116352410e-03  7.4370226500494125e-03 1.6894755220564245e-05 7.1440360218523067e-03  3.5483197049436697e-03 1.5072909804169195e-05 8.4850845038469819e-03  5.3345600636524916e-03 1.4147531747379311e-04 -8.2053715632387312e-03  4.8842924132383343e-03 -1.1633309500862835e-04 8.2597886079914147e-03  1.2004150477153077e-02 1.1243408019272285e-04 -9.7094444193172663e-04  9.1420009517164443e-03 1.6381049959551510e-04 6.2620655577136078e-03  1.0893691525823481e-02 -1.3836388348959931e-04 4.0146208012754158e-03  1.0929481219346313e-02 -1.1620683414519693e-04 -3.2794267195231375e-03  5.7792640543250472e-03 -1.2483851353862628e-04 -7.9808155244951180e-03  1.5680770045685647e-03 1.3059661520433926e-04 8.9685708120473967e-03  8.4178998240062308e-03 1.1547823507948884e-04 -5.9620551906012509e-03  6.8232220013628095e-03 2.7809132012008165e-04 -7.4585190091464894e-03  1.0049300777575713e-02 2.8643940711267391e-04 -4.6870442809268716e-03  8.4776722421320838e-03 4.2563822882008923e-04 -6.0983336359140229e-03  1.1609863463489929e-02 3.9142030900046179e-04 -2.4284748348604242e-03  9.5766995847439279e-03 4.4428485335912808e-04 -3.1224084785732415e-03  1.1539515532960357e-02 4.3128854760856439e-04 9.3601636072461881e-04  7.7534890270060932e-03 4.1108335185318018e-04 1.8640165775822811e-03  9.0315173293277397e-03 4.5608952846146737e-04 5.2898681114755437e-03  3.5388478453681343e-03 4.2387321020515321e-04 6.7678976844799165e-03  5.0769569557117464e-03 4.5420029783894712e-04 8.1639733913709423e-03  -4.7394140333843971e-04 4.3560572445883790e-04 9.0017684226216532e-03  1.1220919547073067e-02 3.6193384329992440e-04 3.5545776659245019e-03  9.0153697835056584e-03 -1.5726075100576311e-04 6.3624316040408269e-03  1.0182396691272173e-02 -3.3155601399355869e-04 5.5277828181178306e-03  1.1651940480848550e-02 -2.9214426379449063e-04 2.4849707212567331e-03  1.2353590242484623e-03 3.5061908958309201e-04 9.3090170310589065e-03  5.9414728206819674e-03 3.5054767550108550e-04 8.1503453413781755e-03  6.7550215288389552e-03 -2.9974472656819814e-04 7.6955751062993960e-03  7.9851317415197548e-03 -4.4122596363507441e-04 6.8963701959674452e-03  1.1931509823230171e-02 1.0689888792046036e-04 1.4675517028013413e-03  1.2307537089707096e-02 2.8779459022228946e-04 3.7342399111063774e-04  1.1092601751381301e-02 1.2147248684341274e-04 -3.1540277278656209e-03  2.2997446667443249e-03 -1.1721593632299939e-04 -9.0489662988096058e-03  8.3297775435017506e-03 -1.3135051076971628e-04 -6.0361795390752133e-03  9.6944451040891950e-03 -2.8590223782516509e-04 -4.9950153158055399e-03  4.6273838502616706e-03 4.4330219841516995e-04 -7.1322961630446080e-03  -3.6163583952803155e-03 4.0663377309467096e-04 6.4681798546077848e-03  3.3712484859945288e-03 3.4272929242182396e-04 -9.1911667147991684e-03  1.1896486601992615e-02 -2.2923113814023730e-04 -1.9568716472571847e-03  1.1103635072197580e-02 -4.1089788103753711e-04 -3.2896747823324460e-03  7.5736601496142553e-03 -4.1020685871316187e-04 -7.0228494546144245e-03  7.6927965265404952e-03 -4.2838908883560813e-04 -5.1199059346601549e-03  3.1907447518708340e-03 -4.4226935033100917e-04 -8.3272576502667305e-03  1.1004993524172920e-03 -3.8147205015695817e-04 -5.7373450121461543e-03  -3.1351387714358340e-03 -4.4331307834223209e-04 -8.0956601276531270e-03  -6.1704284287249405e-03 -4.0147279038085912e-04 -4.2256964669986404e-03  -8.7618677028964455e-03 -4.5853791155314971e-04 -5.8243587417920722e-03  -1.4235909189518644e-03 -3.1596481509813429e-04 4.6189161349979201e-04  -5.9956332661840021e-03 4.2207242150305095e-04 7.7337675735996798e-03  -9.1282054244121984e-03 4.4633811338452400e-04 4.3075252284946160e-03  -1.0848929604391237e-02 -4.6440030234878773e-04 -1.8467499083804682e-03  -1.1409466808583157e-02 -3.8343757545042189e-04 -3.3810705233081602e-03  -1.2074527483023878e-02 -3.7874591671499877e-04 -1.1624909260953651e-04  -1.2012321300412689e-02 -2.1062522217106042e-04 -1.9294002942755403e-03  -1.1868185819286189e-02 -1.8274734247193119e-04 1.0374713478268059e-03  -1.0602654274613146e-02 -1.7454487193410706e-04 -4.6233883060488538e-03  -1.1067924531311057e-02 -3.3000078020081378e-04 3.4106729801201426e-03  -1.1641557024421108e-02 -4.9482671158177366e-05 -2.8900212874046973e-03  -1.0595560121596353e-02 -1.3410928998392244e-04 3.8347844933367967e-03  -9.7825799305534880e-03 -5.1738978868785445e-05 -5.3065332695248863e-03  -1.1044799137648324e-02 6.9320060094121621e-05 -3.8507889434246994e-03  -8.8469590941456615e-03 -3.1819428720574361e-04 6.2451051763435525e-03  -2.2465761753171728e-03 2.0623632297810893e-04 8.9851198811185043e-03  -9.7400584490978295e-03 3.8311951135337497e-04 5.3039039839913333e-03  -8.8547794703957104e-03 5.6663139862371850e-05 -6.1323206016896149e-03  -1.0556479102064356e-02 2.0150570552836266e-04 -4.8298084216998657e-03  -1.1486676605548455e-02 -1.9375088532944474e-05 1.8426655639654447e-03  -5.3859631470211866e-03 -4.0628150552843973e-04 -8.3740796703220613e-03  -8.5904000600251496e-03 -1.3633685965205289e-04 6.1562834834504310e-03  3.1913870706162858e-03 -4.0011054518156625e-04 8.8644895339840823e-03  -1.2012626327330002e-02 2.0822660435999542e-04 -1.9632996085990123e-03  -7.0956571403980118e-03 -4.7803723572900208e-05 -7.2937091820936837e-03  -6.1693935877933891e-03 -2.0552040119002033e-04 7.8393899478780074e-03  -7.6246573059278516e-03 2.2155657755060164e-04 -7.1590532668525698e-03  -9.6026623820852901e-03 4.0021583106902316e-04 -5.9657497291144982e-03  -8.7247429964838474e-03 -4.4591429695128474e-04 6.0453064094420500e-03  -6.4931296109251467e-03 3.8056134752247018e-04 1.2044448758867679e-03  -5.9920232385587942e-03 -3.6365658789544511e-05 7.7842498423537770e-03  -8.6850023367484597e-03 2.3974282636606567e-05 6.0109980878974697e-03  -5.4064752346365992e-03 3.8799555961835564e-04 -8.4080779105256132e-03  -6.7846309270900712e-03 4.4926297225755612e-04 -6.6537689740088137e-03  -3.9883431718781906e-03 2.2538664724910707e-04 -8.7417523802037142e-03  1.0897241111764478e-02 -4.5154212236234073e-04 -2.3521934080415492e-04  -1.1722761612311073e-02 4.2241036292553448e-04 1.9577656123488563e-03  -1.1255421539104971e-02 2.1760225358288330e-04 2.8352525207089446e-03  3.4400688514921755e-03 -4.4729854166088785e-04 7.8504657435678662e-03  -1.5427950538812801e-03 -4.4540575622732789e-04 9.1546636991386831e-03  -6.6124744981443571e-04 -3.2409228519485021e-04 9.2955450494979983e-03  -3.7945483187722495e-03 -1.0964872834175070e-04 8.5253030702929396e-03  -6.6588761605307330e-03 2.9630382939465288e-04 7.7258383781236388e-03  4.0755485635927263e-03 -3.8414021865929005e-04 -8.9302853150306592e-03  -1.0695837104146318e-02 4.5767844020967908e-04 -3.4165584794847385e-03  -8.9704519436399361e-04 -2.7278755238129411e-04 -9.1800867382695692e-03  -2.0674039837026213e-03 -9.8265613419917599e-05 -8.8767126464488720e-03  -2.7445275826630975e-03 -4.0584150518540056e-04 6.5743472517125054e-03  -3.0638328318903611e-03 6.7530134992734438e-05 8.6649262129914924e-03  -1.2142108966775968e-03 4.4476860689038106e-04 -8.7824260183868904e-03  -5.8952428502485428e-03 1.0860798252216347e-04 7.8937152277711465e-03  -9.4457832309517518e-03 1.9763887145247014e-04 5.5116655927845738e-03  -1.0609999827549862e-02 5.5506764049665482e-05 3.6083373453561171e-03  -1.1813297290709760e-02 1.2825096812470576e-04 8.2993458310878614e-04  -1.2017146194421156e-02 5.2193512067535320e-05 -1.1366566864316600e-03  -5.1360257855844220e-03 -2.5561107633036698e-04 -8.4014534906244869e-03  -8.1552112391844022e-03 -2.8945573860305728e-04 -6.9701346132274118e-03  -1.9785741649373969e-03 4.1115310796108786e-04 -6.4004934568383728e-03  -3.6363573895394107e-04 -4.2551709498555402e-04 -9.2210646031602311e-03  8.4782089271441350e-03 -4.5141756105069935e-04 4.4942995807228520e-03  1.0880746820291165e-02 1.0966527432170934e-04 4.2105313927404096e-03  9.2550252508836453e-04 1.7595719562854144e-04 -9.1448536844993197e-03  4.1453498386501975e-03 3.7102115065918171e-04 -3.2858588551877236e-03  -5.0671613655361011e-03 -3.6940552180544136e-04 8.4621570581207804e-03  1.2002511096299080e-02 -6.6921864621098003e-05 -9.9749295902737400e-04  1.1083818560240205e-02 -4.4743192438016977e-04 3.5072992520643032e-03  1.2173230605805690e-02 -3.5818137409318010e-04 1.4142858381986070e-04  -1.1741951071726231e-02 3.7154866275225257e-04 -3.1352947018877873e-03  -7.9692104544454006e-03 -4.0865376186063532e-04 1.3820476896466616e-03  -1.0863708116775596e-02 -4.6103672045677259e-04 2.6244399345917656e-03  -7.0661734666412285e-04 3.6849433354967120e-04 -9.3809907518633672e-03  -2.9215136182191336e-03 6.4332203280106107e-05 -8.7342230369514100e-03  -6.0438532436145019e-03 6.9608696699754381e-05 -7.7992353853378630e-03  6.0943008052160939e-03 -3.6914397159832388e-04 -1.0122446004627551e-03  6.2912241783323489e-04 3.4909256003174213e-04 2.6463707020413590e-03  8.7539486911307612e-03 3.8973357116140633e-04 6.4942663099415007e-03  1.1877097436602761e-02 -1.1948105366011391e-04 1.3945097140855617e-03  5.6287008114861694e-03 1.7707878673516695e-04 8.0163834761584896e-03  -1.2221740793831332e-02 3.2559416742280979e-04 -1.4382210909086394e-04  -3.2094067904753030e-03 3.5980919750705829e-04 8.9315217854227004e-03  6.8435186130376665e-03 -2.5035998643085005e-04 -7.4627162658215118e-03  -1.0261253137703609e-02 -2.8988625633160148e-05 4.1242847060877930e-03  4.2380145197997822e-03 4.4319207718284466e-04 -8.6896507134508558e-03  3.1004366267924845e-03 -2.7666562236224588e-04 8.8670214181928077e-03  3.5236444205162189e-03 -3.6905662416275353e-04 4.6022718629993922e-03  -9.8676553242323783e-03 -3.9348326647812199e-04 -5.7118608297064477e-03  1.1801626974099217e-02 2.3736763345469502e-04 -2.1271920163366911e-03  -5.4117668161370405e-04 -1.2081347436894431e-04 9.0584920687162302e-03  1.0567843726227424e-02 2.5008774874769505e-04 4.8268567085189319e-03  -1.2096634445638290e-02 -8.5051997564335616e-05 -5.7495977592868339e-04  -1.0731428726440024e-02 4.5109617495958133e-04 -9.2202753884237666e-05  -7.4788467727830189e-03 4.2136393311470986e-04 -3.3304254663973185e-03  1.2187380630110068e-02 -1.9755216734855467e-04 1.8559726373381158e-04  -3.4963652243219802e-03 -2.4941531149156519e-04 8.7723298938073586e-03  4.2708220388063215e-03 -2.3792484549913076e-04 -8.8711237697367239e-03  -4.1284858274716124e-03 -3.7098874433210766e-05 -8.4864281601830637e-03  -7.9059166641516267e-03 -4.4870621923108836e-04 5.3809169130080913e-03  1.1554561693711218e-02 2.1899129021404282e-04 2.8944696919987124e-03  -1.8841518908027863e-03 3.5654473225936901e-04 -2.3811921765864792e-03  -8.1589707957189748e-03 -1.4684223319085909e-04 -6.7752524360694278e-03  -5.4469002923049807e-03 -1.2535579547575152e-04 -8.1285647415523521e-03  -5.4946328743903693e-03 -4.4355657172458901e-04 7.7494767401232708e-03  -1.1840405066555034e-02 4.2597657057753482e-04 -1.0431970549357324e-03  -1.3623057084716580e-04 1.0537007089877502e-05 -1.9116505449186196e-05  -7.8300257240758800e-03 1.6598433434284046e-04 4.5386114442374446e-04  1.0572178964777796e-02 -8.2430849029346064e-05 1.2677005637800340e-04  -4.9584711013826140e-03 -1.6091923376783827e-04 4.3838444085857551e-03  8.1792675483429098e-03 1.4111208417359107e-04 3.7395565655879907e-03  -4.8629657593495402e-03 -2.4949955907549254e-05 -7.4732220185188955e-03  -1.0619071197783228e-02 -4.5690397079133454e-05 -1.9620031201159638e-04  2.4395782200666155e-03 -1.6930983483048735e-04 -4.1907752629290152e-03  7.6866222512257465e-03 1.1959676172432416e-04 -5.1559459931802883e-03  -5.6837591853646455e-03 1.6502712436855027e-05 7.1753341237914140e-03  5.4699913213473840e-03 -1.5861330926607832e-04 6.3269276714760349e-03  -2.0317907801912548e-03 1.8189304253891356e-04 -7.0823993934964503e-03  2.3048597046488920e-03 1.9382093288921416e-04 8.1736028130855072e-05  4.2048222605969724e-03 -6.9708782612181296e-05 -7.9467663598468026e-03  -2.0215015234409666e-03 1.9375360545830135e-04 7.0702875316329995e-03  3.2076377022453970e-03 3.1048704866180633e-05 8.3446356514507818e-03  -7.7595731341218686e-03 -1.9419108538325407e-04 -3.6812232388660185e-03  -9.8423111135621470e-03 1.1122032556508397e-04 -4.5705247718214482e-03  9.5790920444529561e-03 -1.7723648598144654e-05 5.3083561637478141e-03  -1.6163876532590499e-03 -1.5218257943092281e-04 8.8134412237468318e-03  2.6682969876566476e-03 -2.0778894144801298e-04 3.3446182631794033e-03  9.0533166571725929e-03 -1.8258019065800501e-04 -4.6105786502628589e-03  9.7351604953792199e-03 -2.4495236359786270e-04 7.2027384980084092e-04  -9.4791896103021116e-03 -1.3730851113810818e-04 4.8910614422182901e-03  1.1689145984264007e-02 1.0009004392264632e-04 -5.0187328850361359e-04  -2.3150121847561687e-03 -2.0994854564396393e-04 -8.2720922197214945e-03  -1.0986464314272620e-02 1.1146400446363010e-04 2.9626747244324058e-03  1.0508383562578131e-02 -2.1621394773448904e-05 -4.0923809741584757e-03  9.6965904006771405e-03 2.3791120016198382e-04 -1.2339485376918471e-03  -9.9954879795547819e-03 -1.1075643415873408e-04 -4.9914251971420551e-03  2.5241114476658843e-03 1.1521684107670199e-04 -9.0130497824280082e-03  -4.9522729468333727e-03 2.5736267105115721e-04 -3.5616150273735667e-03  -4.9815443509861560e-03 2.5968335374106430e-04 3.2570194474374472e-03  5.0194943408221910e-03 2.7160193764241397e-04 5.9156454080509097e-03  -1.0371618790028179e-02 -2.6357457854791431e-04 2.0230040371054668e-03  4.4961490924223376e-03 2.5695888543430211e-04 -5.9851803291503360e-03  -3.6254596114030282e-03 -2.2843818363261386e-04 -1.7204713777235845e-03  -5.9158660099137977e-03 1.3189452508331414e-04 -7.9118364992274096e-03  1.0619802950200681e-02 -1.9548248416537592e-04 3.7511208375561700e-03  1.9545391460445124e-03 -8.8656358512238898e-05 1.9915116511130013e-03  5.5317119196020316e-03 -6.0964051936393413e-05 -3.5619034401003485e-03  </DataArray> 
</PointData> 
</Piece>
</UnstructuredGrid>
</VTKFile>