<?xml version="1.0"?>
<VTKFile type="UnstructuredGrid"  version="0.1"  >
<UnstructuredGrid>
<Piece  NumberOfPoints="201" NumberOfCells="657">
<Points>
<DataArray  type="Float64"  NumberOfComponents="3"  format="ascii">0.05311313080619941 -0.04407171001223396 3632.888133149478  -0.004634007608139264 0.007945156641865431 -3632.888558004019  1164.283436832103 0.006364290450040062 -3455.064378632133  2214.548477284576 -0.04507022766154218 -2939.127965630444  3048.075915263752 -0.006911508325742282 -2135.309749026439  3583.311672750804 -0.009078057597254141 -1122.620863077988  3767.799253373229 0.01510037844720094 0.09289896688580955  3583.347980132336 -0.02897191532828894 1122.716985715188  3048.181933064823 0.00288294129301765 2135.386611078465  2214.670170469564 0.01236242520137956 2939.052953681517  1164.264734219253 0.02075110890239643 3455.03459340028  1475.3937077207 -186.113909147335 -3159.161470984579  1465.699585647666 144.5927998289635 3237.42822120775  3587.006936970454 -165.7437132553069 -538.6357391467036  2582.853383007731 -180.7799229255044 2422.859897429989  3262.605411218583 167.6276762585086 1527.909209971136  3249.030882027857 167.6266256739413 -1554.429183343803  1647.348158886734 166.5929023630526 -3117.462383512448  567.6546339234839 -166.6086407862374 3455.659863735205  2565.884655955013 -166.5968829324885 -2473.992228863864  1787.035109359877 -326.1560261853277 -2558.106845285115  2655.217760609801 -319.6967420857238 -1761.817418205741  1822.124469164112 -455.5303562121881 -1693.460616204467  2566.972107388421 -427.8996546964721 -833.7967711087836  1612.121446202643 -540.7450402170722 -708.8447092725989  2294.449950648247 -486.2821952415879 179.2730737876278  1206.101088465605 -576.9758995058711 323.5968007982222  1748.369914520439 -502.6443714146284 1226.972168648221  630.0812376299835 -561.9665014450928 1305.318916973346  1118.456848494552 -460.0339087486353 2154.95558400041  -43.4208678039745 -493.6074957389638 2159.693857648165  2679.183876060481 -396.1415519472114 1034.772765201348  2565.989125999229 166.6180167595263 2474.02602548471  2601.418675736536 321.8294729435636 1822.272575578731  3150.11912916647 308.5138876996499 824.7397489203026  418.0512709329844 -368.0483364863164 2886.501143904271  1530.908320443048 -323.0085349557256 2721.088233651815  1786.746320617983 307.6324858662849 2637.021438019678  1723.181046587466 448.5588511585487 1848.549148285579  3593.911723529003 -161.7064568776769 538.5818095892539  3170.762121916449 -333.3155510934091 62.4279768994102  3269.907120576626 -167.7873132169231 -1512.798587850757  567.6982752232651 166.5755978386001 -3455.698409815623  2540.287709968321 162.4058482316091 -2507.879352397266  2581.353898690221 320.1216536625433 -1858.751272216437  782.3505375289047 -545.5269973034875 -1469.906636942932  -547.4853557663625 -568.5102869176792 1235.781710094192  762.4860220819007 -334.3681409663804 -2963.271508977612  3128.684645963042 312.1781254453233 -852.2568481354948  2341.550496266603 449.4331332904637 -1026.59139073324  1662.43531618087 437.5547961809817 -1988.527012736964  1313.592732116216 542.9824234174644 -1107.550233577042  580.1380092081523 510.4448366953667 -1935.94798301603  169.9246513807557 586.8824043434344 -1005.42428436382  -594.8423581873728 524.8414248593017 -1787.31705528832  -981.9664910299722 576.6366637261684 -758.2180833218176  -1729.372066644672 493.9402624229108 -1369.634626117917  -188.9004519915037 609.8176261106371 67.20106514968344  -1205.401647818531 -474.8340995760206 1991.152611182799  -1665.688876951652 -524.2990288460629 986.0941760719279  -2030.832411806379 513.0287681846567 -370.1682666453328  -2680.410220028364 402.6444435295556 -938.7411342477858  -2855.141556712829 401.7995879387009 83.97764025944441  -3346.864730621325 265.8387346739214 -586.4144401840061  -3392.518653899682 252.3712531653453 547.0801079828994  -2973.111901093302 252.0381097475147 -1669.737773915982  -2745.119798109817 372.0781498383743 1178.088040409192  -3539.215299544009 110.3731009488446 -1064.566322723737  -3133.538075633918 207.6096383544918 1607.409838241424  -3012.430937694948 70.85880855970694 -2142.031578539112  -3382.815442107931 -80.18831152740178 -1528.875920672179  -2332.1480778236 312.3486110273221 2182.788507334202  -520.6886856632472 -255.5288409562068 3269.492554992047  -2272.870578125374 -406.8627692908577 1623.541302871572  -2707.134444713277 -108.5885308676124 -2445.237522679806  -2925.928352917712 -254.501545252274 -1732.9343760214  -3620.219262309919 70.09120680137455 918.6542794967316  -1261.192430035082 410.0359700129633 -2422.148603022827  -2577.922820866623 133.6570269476723 2530.652354958269  811.3330083306638 414.3214851302171 2570.877986661897  -3489.164044497944 -208.5991282488495 -615.9673027908553  -2193.198612889651 43.40299056873985 -2943.167472753731  -1709.32877347105 237.9219965723822 2920.156839158356  -2108.652662413062 -273.6692705556678 -2544.900589034063  -2209.566880585999 -406.3229574294172 -1707.431276056147  -1862.673813072001 456.9258678921217 1638.095588375681  -952.1861585534757 -590.1460518400489 234.281560698299  -1799.464910190761 40.1436303992671 3183.176183498845  -2658.987176992741 -57.98602686465473 2551.341485374314  -1275.374742039072 -407.4095785204474 -2430.719968253546  -1280.618639103306 -517.7622425945256 -1506.463437992609  -1098.277819827696 -258.7812061593957 -3124.62695221099  1914.512398606181 527.7423107534871 -102.6937364168463  -2572.841258857452 -436.0693050296338 644.819486096418  -3095.322918040203 -295.5586993871776 1127.549966685119  676.2155333149112 531.476083289509 1688.422101980016  -244.0376919983781 480.0327655896554 2253.449222581089  -84.46607205341731 362.9815852225598 2935.654938779812  -1020.879434246819 153.8100669745874 3378.396632078036  -1703.485458356407 -333.2766195576514 2578.893124652761  889.4882892744799 405.0570316693239 -2598.281827581699  -2115.736224541546 -490.0703559510038 -794.171696448775  -279.2589842066755 311.3984191208362 -3125.180102431654  -618.5144343992157 133.7821359195642 -3496.524788642279  -420.2990533544641 571.3069928764355 1235.649658230409  -796.1953868512326 -94.7588726619731 3507.062414692381  -272.7982014196194 -502.4278736838209 -2069.377957174323  -1720.230524864893 -152.1950415573002 3106.279806632694  -2652.806367830182 -244.8152292710972 2141.6003234222  -3301.350948689739 -117.869446356214 1608.431941576834  -3612.392322221462 -152.9401446309191 509.8182752410218  -3751.498216422051 -19.89947091969169 -315.5753757319695  -1447.844958303178 264.793873126869 -2970.958811179055  -2196.203702273247 292.8170891319386 -2397.744243640579  -321.2542235052636 -575.5847340379066 -1191.013407323701  -128.3609239853833 453.7547111045343 -2448.555379354042  1505.823686126118 538.4330788418561 950.3047242712797  3247.960568620744 -160.3657476058396 1582.985792298019  188.3371195178788 -174.7682879357921 -3480.158559740956  597.2054335993279 -596.0037675091428 -560.6982196906932  -1148.614173446151 392.8939866662848 2569.81492247939  3602.284824384454 155.4256627210036 -550.1180825008187  2410.939240100363 445.3892351907213 935.6245642031042  2843.34094707586 404.1937968340609 -41.52365356745942  -2879.517772821807 -365.8692689248308 -919.3497954137555  -1251.579616698059 575.1102998485595 283.3690588218081  -2098.309110858892 497.3344295183708 665.5610299087169  -204.6540092373193 -376.1970277083071 -2870.982355209507  -878.2107982442133 -68.92542044153514 -3509.696204263002  -1851.095086030169 -110.6154933449833 -3097.062689123532  872.8455107349656 593.7809419325652 -185.9819742957004  102.2791756106884 -606.795834541522 404.6173354021792  2082.874560949085 -388.7101126984303 1978.271910634598  3608.677839377972 157.3664784675203 488.3012212737949  1648.348559012579 -165.3672840742723 3119.182589616702  -3189.261227981165 -328.4002869862963 89.76939391191226  -675.233038864713 -405.7182451172969 2654.506515108226  1836.859365685598 298.3277896094035 -2642.379991682412  -3228.110272741474 49.26340619086966 1850.95397973306  847.153187157326 -457.1912653515129 -2287.019761173581  923.4055573429368 295.9403860681146 3061.699029033385  538.2232338636794 591.1454305532911 765.1212471147928  -2345.998436957087 385.6657835998351 -1706.718871295246  3153.047610595891 -297.178610824696 -949.9201374485275  -57.67016773510747 160.5179505710286 3507.993832049085  2855.784485364906 -289.2046348854923 1650.584541874134  -3658.7184947401 147.2066768091363 -82.59618147677459  -1951.687171586103 -524.5677785370773 35.08974717587782  -1192.388945271734 -571.4981684141446 -603.1855773766785  3381.993986970757 272.4519727805899 -25.26272030658687  -841.5643029738676 303.6382063809264 3057.588322013897  1047.129137050141 275.8336156208589 -3090.033137848034  -1270.364763566562 45.37461470006527 -3409.920054679319  -1380.636175659542 535.8714847882967 1156.27361640169  3206.441940508817 -276.4917561488471 999.5813051041258  -257.3899665732368 -606.3321861417609 -365.5957489845385  -2416.809436556677 160.5377984011977 -2623.139812538275  -1651.660823466926 136.4419157152994 -3165.712734141671  -1055.551787393572 493.4938527478287 1907.127430999268  -2653.063197083404 -435.6952457791318 -203.4602919482985  -0.03991785166483296 0.001799846656721584 0.02694144626051573  -1204.803639720323 -239.2219859015856 100.8986549893309  1821.155235267188 93.43618592082522 -16.63953845635847  -725.8361844072215 251.3780955534444 802.4269995076554  1357.695263236089 -178.3923855926651 729.8710611670673  -884.3600789319734 26.14273864525838 -1621.160653893018  -1873.012282563091 47.5654506341282 1.350014576438089  358.0079239737356 284.2341427098372 -696.856759786467  1265.202608470905 -140.3340028501928 -1090.853462775462  -984.0390203047129 -26.68333099350776 1572.372473726432  943.7436396619396 211.8291748511921 1268.029754721634  -348.548658239978 -241.6453930931016 -1377.554756910052  311.8948037491945 -348.3392585107367 6.760574249777046  751.204834518
[...]
<PointData  Vectors="Centrifugal"> 
<DataArray  type="Float64"  Name="Centrifugal"  NumberOfComponents="3" format="ascii">1.2757599879658914e-09 0.0000000000000000e+00 8.7832159853703850e-05  -1.1113936546526060e-10 0.0000000000000000e+00 -8.7832170100460283e-05  2.8148630061566697e-05 0.0000000000000000e+00 -8.3532926231440246e-05  5.3540670065004803e-05 0.0000000000000000e+00 -7.1059144472348146e-05  7.3692684634814117e-05 0.0000000000000000e+00 -5.1625287551881592e-05  8.6632952620592103e-05 0.0000000000000000e+00 -2.7141550560256995e-05  9.1093256017753171e-05 0.0000000000000000e+00 2.2312285874536892e-09  8.6633824744063607e-05 0.0000000000000000e+00 2.7143859119637370e-05  7.3695230746203671e-05 0.0000000000000000e+00 5.1627133518611124e-05  5.3543592668663263e-05 0.0000000000000000e+00 7.1057342764813434e-05  2.8148180938250706e-05 0.0000000000000000e+00 8.3532210879774240e-05  3.5670220299167975e-05 0.0000000000000000e+00 -7.6378779264632890e-05  3.5435861189016226e-05 0.0000000000000000e+00 7.8271065451913119e-05  8.6722179685137213e-05 0.0000000000000000e+00 -1.3022555902100185e-05  6.2444969186256085e-05 0.0000000000000000e+00 5.8577280331279544e-05  7.8879198955105430e-05 0.0000000000000000e+00 3.6940129823203086e-05  7.8551012623416405e-05 0.0000000000000000e+00 -3.7581321644599808e-05  3.9827536297605273e-05 0.0000000000000000e+00 -7.5370643305672951e-05  1.3724045535044157e-05 0.0000000000000000e+00 8.3547228997272064e-05  6.2034757633955162e-05 0.0000000000000000e+00 -5.9813522220537794e-05  4.3204550510220446e-05 0.0000000000000000e+00 -6.1846932740253487e-05  6.4194309383565359e-05 0.0000000000000000e+00 -4.2595179828625516e-05  4.4052657432187674e-05 0.0000000000000000e+00 -4.0942327473771314e-05  6.2060556820769884e-05 0.0000000000000000e+00 -2.0158501115675301e-05  3.8975326009875974e-05 0.0000000000000000e+00 -1.7137470038042761e-05  5.5471749489091711e-05 0.0000000000000000e+00 4.3342230945737217e-06  2.9159147937029580e-05 0.0000000000000000e+00 7.8234631486980308e-06  4.2269410686029256e-05 0.0000000000000000e+00 2.9664092518146165e-05  1.5233096141801793e-05 0.0000000000000000e+00 3.1558162319782044e-05  2.7040404206898799e-05 0.0000000000000000e+00 5.2099755686651002e-05  -1.0497720480706192e-06 0.0000000000000000e+00 5.2214218504259938e-05  6.4773536119385402e-05 0.0000000000000000e+00 2.5017460675756898e-05  6.2037266495595884e-05 0.0000000000000000e+00 5.9814333937123620e-05  6.2893605336493465e-05 0.0000000000000000e+00 4.4056783970504813e-05  7.6159392431007341e-05 0.0000000000000000e+00 1.9939602928208048e-05  1.0107081335451070e-05 0.0000000000000000e+00 6.9786370998225656e-05  3.7012236491634907e-05 0.0000000000000000e+00 6.5787304545576609e-05  4.3197584261471499e-05 0.0000000000000000e+00 6.3754871329862808e-05  4.1660548969530076e-05 0.0000000000000000e+00 4.4691860653765015e-05  8.6889109119762421e-05 0.0000000000000000e+00 1.3021249574782969e-05  7.6658397429202595e-05 0.0000000000000000e+00 1.5093070315324380e-06  7.9055718647104642e-05 0.0000000000000000e+00 -3.6574818924906300e-05  1.3725093732339578e-05 0.0000000000000000e+00 -8.3548154851361423e-05  6.1415915480108761e-05 0.0000000000000000e+00 -6.0632809914056047e-05  6.2408531076440653e-05 0.0000000000000000e+00 -4.4938738099273272e-05  1.8914435380521144e-05 0.0000000000000000e+00 -3.5537370581276341e-05  -1.3236213557185619e-05 0.0000000000000000e+00 2.9876981383139267e-05  1.8434351770149356e-05 0.0000000000000000e+00 -7.1642501897682665e-05  7.5641163618860136e-05 0.0000000000000000e+00 -2.0604887337916172e-05  5.6610579702658810e-05 0.0000000000000000e+00 -2.4819625837676764e-05  4.0191956022311238e-05 0.0000000000000000e+00 -4.8076097844659517e-05  3.1757970465653396e-05 0.0000000000000000e+00 -2.6776823474627103e-05  1.4025691274006741e-05 0.0000000000000000e+00 -4.6804761050440761e-05  4.1081634435405277e-06 0.0000000000000000e+00 -2.4307700654809040e-05  -1.4381169966119538e-05 0.0000000000000000e+00 -4.3211321565408277e-05  -2.3740384927320846e-05 0.0000000000000000e+00 -1.8331112955718249e-05  -4.1810133302490433e-05 0.0000000000000000e+00 -3.3113207564800498e-05  -4.5669220857959609e-06 0.0000000000000000e+00 1.6246815907046577e-06  -2.9142406549490951e-05 0.0000000000000000e+00 4.8139498048326669e-05  -4.0270437470657849e-05 0.0000000000000000e+00 2.3840446730928886e-05  -4.9098333623729191e-05 0.0000000000000000e+00 -8.9494301743876664e-06  -6.4803180404557771e-05 0.0000000000000000e+00 -2.2695723705793103e-05  -6.9027593219986454e-05 0.0000000000000000e+00 2.0303121881202571e-06  -8.0916153480029937e-05 0.0000000000000000e+00 -1.4177663776777316e-05  -8.2019949936165212e-05 0.0000000000000000e+00 1.3226695487372458e-05  -7.1880071117663892e-05 0.0000000000000000e+00 -4.0369044986698942e-05  -6.6367719871559915e-05 0.0000000000000000e+00 2.8482394145189325e-05  -8.5566801662619385e-05 0.0000000000000000e+00 -2.5737935885005684e-05  -7.5758728020827422e-05 0.0000000000000000e+00 3.8862186399065658e-05  -7.2830889122473799e-05 0.0000000000000000e+00 -5.1787764861695569e-05  -8.1785587531703157e-05 0.0000000000000000e+00 -3.6963538002649529e-05  -5.6383568512899889e-05 0.0000000000000000e+00 5.2772929288733349e-05  -1.2588536333861600e-05 0.0000000000000000e+00 7.9046140697802274e-05  -5.4950245291015277e-05 0.0000000000000000e+00 3.9251972055859336e-05  -6.5449777061543925e-05 0.0000000000000000e+00 -5.9118337580365055e-05  -7.0739316146753228e-05 0.0000000000000000e+00 -4.1896942019565150e-05  -8.7525252941435537e-05 0.0000000000000000e+00 2.2210245082328058e-05  -3.0491313728562213e-05 0.0000000000000000e+00 -5.8559709398497742e-05  -6.2325833650948536e-05 0.0000000000000000e+00 6.1183407084737366e-05  1.9615257619626679e-05 0.0000000000000000e+00 6.2155511222584641e-05  -8.4356596160336676e-05 0.0000000000000000e+00 -1.4892172426541538e-05  -5.3024481447087085e-05 0.0000000000000000e+00 -7.1156784118185198e-05  -4.1325966437792364e-05 0.0000000000000000e+00 7.0600302776234851e-05  -5.0980252829208310e-05 0.0000000000000000e+00 -6.1527717815775253e-05  -5.3419768387022031e-05 0.0000000000000000e+00 -4.1280161570276429e-05  -4.5032997944155621e-05 0.0000000000000000e+00 3.9603778612669375e-05  -2.3020383712002412e-05 0.0000000000000000e+00 5.6641283280258201e-06  -4.3505275852292002e-05 0.0000000000000000e+00 7.6959473756870722e-05  -6.4285745143660369e-05 0.0000000000000000e+00 6.1683645087446458e-05  -3.0834198217382778e-05 0.0000000000000000e+00 -5.8766936964562272e-05  -3.0960816564068134e-05 0.0000000000000000e+00 -3.6421242264821122e-05  -2.6552713313500897e-05 0.0000000000000000e+00 -7.5543719945614455e-05  4.6286085400542226e-05 0.0000000000000000e+00 -2.4827883505594539e-06  -6.2202425547018263e-05 0.0000000000000000e+00 1.5589638424611123e-05  -7.4834643482131764e-05 0.0000000000000000e+00 2.7260609939527582e-05  1.6348481143689120e-05 0.0000000000000000e+00 4.0820361797740136e-05  -5.8999714789056963e-06 0.0000000000000000e+00 5.4480939445849983e-05  -2.0421039245200386e-06 0.0000000000000000e+00 7.0974772730637658e-05  -2.4681544717875491e-05 0.0000000000000000e+00 8.1679254711917291e-05  -4.1184584393709393e-05 0.0000000000000000e+00 6.2349451775844310e-05  2.1504794606484187e-05 0.0000000000000000e+00 -6.2818059016279460e-05  -5.1151073503267944e-05 0.0000000000000000e+00 -1.9200438489727366e-05  -6.7515436131528295e-06 0.0000000000000000e+00 -7.5557008074364577e-05  -1.4953647829024689e-05 0.0000000000000000e+00 -8.4535242839390743e-05  -1.0161310300811675e-05 0.0000000000000000e+00 2.9873778973768427e-05  -1.9249418820812329e-05 0.0000000000000000e+00 8.4790049561948288e-05  -6.5952979476609208e-06 0.0000000000000000e+00 -5.0030665953255202e-05  -4.1589604857027045e-05 0.0000000000000000e+00 7.5100288402728398e-05  -6.4136137377427478e-05 0.0000000000000000e+00 5.1777230643739055e-05  -7.9816012234840781e-05 0.0000000000000000e+00 3.8886945513227222e-05  -8.7335952101486250e-05 0.0000000000000000e+00 1.2325839600217633e-05  -9.0699164931324329e-05 0.0000000000000000e+00 -7.6296503246001074e-06  -3.5004111568516103e-05 0.0000000000000000e+00 -7.1828480145386684e-05  -5.3096912802826070e-05 0.0000000000000000e+00 -5.7969904387692990e-05  -7.7667586227724262e-06 0.0000000000000000e+00 -2.8794628014660609e-05  -3.1033236568479518e-06 0.0000000000000000e+00 -5.9198047954259112e-05  3.6405432494964783e-05 0.0000000000000000e+00 2.2975158893037477e-05  7.8525133256247397e-05 0.0000000000000000e+00 3.8271702186274675e-05  4.5533736197035833e-06 0.0000000000000000e+00 -8.4139515112672110e-05  1.4438243484262486e-05 0.0000000000000000e+00 -1.3555748735033437e-05  -2.7769588858764557e-05 0.0000000000000000e+00 6.2129847540138509e-05  8.7091557940851056e-05 0.0000000000000000e+00 -1.3300163907158587e-05  5.8288166678016233e-05 0.0000000000000000e+00 2.2620339285137661e-05  6.8742272748328765e-05 0.0000000000000000e+00 -1.0039145720573051e-06  -6.9617014548055910e-05 0.0000000000000000e+00 -2.2226930799491998e-05  -3.0258651213263694e-05 0.0000000000000000e+00 6.8508924068691995e-06  -5.0729731465123309e-05 0.0000000000000000e+00 1.6091044305934486e-05  -4.9478260709759761e-06 0.0000000000000000e+00 -6.9411159550803128e-05  -2.1232274680093784e-05 0.0000000000000000e+00 -8.4853730457950944e-05  -4.4753497142263591e-05 0.0000000000000000e+00 -7.4877476265220277e-05  2.1102211116987487e-05 0.0000000000000000e+00 -4.4964027833916480e-06  2.4727368249212887e-06 0.0000000000000000e+00 9.7822404788565974e-06  5.0356831441132682e-05 0.0000000000000000e+00 4.7828260330993433e-05  8.7246116963814066e-05 0.0000000000000000e+00 1.1805614899496710e-05  3.9851711067845909e-05 0.0000000000000000e+00 7.5412238193316879e-05  -7.7105676807021154e-05 0.0000000000000000e+00 2.1703384787264835e-06  -1.6324830479886061e-05 0.0000000000000000e+00 6.4177403491373606e-05  4.4409171934019533e-05 0.0000000000000000e+00 -6.3884436809179756e-05  -7.8045329136753119e-05 0.0000000000000000e+00 4.4750408373212657e-05  2.0481226428972044e-05 0.0000000000000000e+00 -5.5292637498237195e-05  2.2324892736059141e-05 0.0000000000000000e+00 7.4022264688186859e-05  1.3012270977953631e-05 0.0000000000000000e+00 1.8497989844676659e-05  -5.6718267069316919e-05 0.0000000000000000e+00 -4.1262972233224990e-05  7.6230216423461204e-05 0.0000000000000000e+00 -2.2966088198553360e-05  -1.3942769109566092e-06 0.0000000000000000e+00 8.4812507626687457e-05  6.9043395418697022e-05 0.0000000000000000e+00 3.9905943384431024e-05  -8.8455958455585819e-05 0.0000000000000000e+00 -1.9969290643759749e-06  -4.7184850293417247e-05 0.0000000000000000e+00 8.4835425232894436e-07  -2.8827640430497029e-05 0.0000000000000000e+00 -1.4582969236517545e-05  8.1765435396190443e-05 0.0000000000000000e+00 -6.1077776385028032e-07  -2.0346222804825585e-05 0.0000000000000000e+00 7.3922866742517522e-05  2.5316110127482145e-05 0.0000000000000000e+00 -7.4707323937958002e-05  -3.0713313733940298e-05 0.0000000000000000e+00 -8.2441448623684445e-05  -3.3378846053536608e-05 0.0000000000000000e+00 2.7954786042254005e-05  7.7521163139335583e-05 0.0000000000000000e+00 2.4166738324611412e-05  -6.2227412645785205e-06 0.0000000000000000e+00 -8.8388376353299797e-06  -5.8430601420765391e-05 0.0000000000000000e+00 -6.3419432627628841e-05  -3.9931804096815012e-05 0.0000000000000000e+00 -7.6537198072386769e-05  -2.5519533456207936e-05 0.0000000000000000e+00 4.6108009826699804e-05  -6.4141938766445813e-05 0.0000000000000000e+00 -4.9190064366084889e-06  -9.5870926358580986e-10 0.0000000000000000e+00 6.4710851494174307e-10  -2.9127739056213313e-05 0.0000000000000000e+00 2.4393793197070573e-06  4.4028968243689469e-05 0.0000000000000000e+00 -4.0228827852646892e-07  -1.7548048840567921e-05 0.0000000000000000e+00 1.9399906852267445e-05  3.2824137181523387e-05 0.0000000000000000e+00 1.7645779906665011e-05  -2.1380639208871511e-05 0.0000000000000000e+00 -3.9194160520482727e-05  -4.5282695090578639e-05 0.0000000000000000e+00 3.2637413910645293e-08  8.6553160030192849e-06 0.0000000000000000e+00 -1.6847570807455898e-05  3.0588019498910407e-05 0.0000000000000000e+00 -2.6373112778608822e-05  -2.3790518274126602e-05 0.0000000000000000e+00 3.8014627414250442e-05  2.2816301598158885e-05 0.0000000000000000e+00 3.0656621528105498e-05  -8.4266353072422525e-06 0.0000000000000000e+00 -3.3304539203715198e-05  7.5404580121223876e-06 0.0000000000000000e+00 1.6344361097328356e-07  1.8161444430947940e-05 0.0000000000000000e+00 -4.3632450358060169e-05  -7.1760781441061435e-06 0.0000000000000000e+00 3.3096860617893962e-05  1.5921633981278685e-05 0.0000000000000000e+00 4.6596443424563546e-05  -3.0818154974658278e-05 0.0000000000000000e+00 -1.6481638317197175e-05  -4.5344933099500734e-05 0.0000000000000000e+00 -2.4536336314988740e-05  4.6166375272308574e-05 0.0000000000000000e+00 3.1308091786316299e-05  -6.1619774688618268e-06 0.0000000000000000e+00 4.9428852007485690e-05  9.4859975427658907e-06 0.0000000000000000e+00 1.2625630005686414e-05  3.9145434611549005e-05 0.0000000000000000e+00 -2.6535517654635922e-05  3.9150104362782166e-05 0.0000000000000000e+00 2.4314565781687317e-06  -4.4950993285840827e-05 0.0000000000000000e+00 2.9753115896772351e-05  5.5247417572150707e-05 0.0000000000000000e+00 -4.7053088511480128e-06  -1.1032681171059528e-05 0.0000000000000000e+00 -4.3781121972762402e-05  -5.3133199489067776e-05 0.0000000000000000e+00 1.9104912151257970e-05  5.1932519714506081e-05 0.0000000000000000e+00 -2.8904370590896373e-05  3.8494583169556280e-05 0.0000000000000000e+00 -7.3020180993532782e-06  -4.9435551267588527e-05 0.0000000000000000e+00 -2.9559854885864396e-05  1.1428615901036062e-05 0.0000000000000000e+00 -5.3189843726382409e-05  -1.7829860815843453e-05 0.0000000000000000e+00 -1.4733734225387013e-05  -1.7280813548020221e-05 0.0000000000000000e+00 1.3725084143635412e-05  2.0549343747337153e-05 0.0000000000000000e+00 2.7094844695823025e-05  -4.4897412307673952e-05 0.0000000000000000e+00 1.1266572339732647e-05  1.7331608476368867e-05 0.0000000000000000e+00 -2.7874557284988045e-05  -1.2401425980264804e-05 0.0000000000000000e+00 -6.5667923535246633e-06  -3.0011541347859153e-05 0.0000000000000000e+00 -4.9273040786524834e-05  5.1778391533709620e-05 0.0000000000000000e+00 2.2302589111182055e-05  6.5306850320108258e-06 0.0000000000000000e+00 7.0569460787512435e-06  1.9411761336791870e-05 0.0000000000000000e+00 -1.5528252605274579e-05  </DataArray> 
</PointData> 
</Piece>
</UnstructuredGrid>
</VTKFile>