<?xml version="1.0"?>
<VTKFile type="UnstructuredGrid"  version="0.1"  >
<UnstructuredGrid>
<Piece  NumberOfPoints="201" NumberOfCells="657">
<Points>
<DataArray  type="Float64"  NumberOfComponents="3"  format="ascii">-0.09125004151590292 -0.1065458579449615 1231.492680313965  0.02358668753385949 0.09134578003670193 -1231.512486167287  2325.712338119279 -0.8243904587463251 -1174.730394537757  4422.269505682501 -1.538303052140873 -1003.09214193971  6084.122751279443 -1.913633415374745 -732.5139229617608  7149.932809416662 -2.037017437031063 -388.6933803269779  7516.977887354371 -2.077520893236665 -6.341781711659813  7149.921244499191 -2.074689236159517 376.0416833052862  6084.071164003575 -1.963941579212414 720.4195443032379  4422.188300989086 -1.644360549018494 993.148300156546  2325.632782292194 -0.9689300738596074 1168.915073149252  2946.619570939799 -2187.998365100534 -1070.461141525339  2926.170098324518 1697.603617497692 1090.905828526477  7155.846709977937 -1947.416338360161 -186.3872259707902  5155.268807666127 -2125.45213264997 822.6536071060846  6508.656925401799 1965.942153096685 510.5390570626327  6481.715044594584 1965.912430040819 -538.6741805152603  3288.580208216983 1956.270766783618 -1066.436880796194  1134.341488426351 -1958.306283443011 1175.298153145837  5121.95646806656 -1958.607233633205 -842.2635099219356  3566.176376413263 -3840.829423958102 -864.5783843632664  5296.228108128705 -3764.11535069677 -597.2560625741008  3632.111498235255 -5379.307979517787 -569.0176599744601  5115.823357251496 -5048.074816043658 -279.5291375496894  3210.729043508717 -6402.79476037404 -232.8034089350247  4570.668095406381 -5746.468064143416 66.68988688725734  2401.703257190433 -6840.145938302053 119.499409258256  3483.280917740102 -5943.686902189775 424.4923535193576  1255.994811903884 -6659.520488167342 454.2586017426184  2230.433531007837 -5433.90832338192 740.4933706881276  -84.87414818785109 -5836.002698583747 744.9852209928994  5340.658414975061 -4669.927169709728 355.428279130792  5120.601689233963 1955.095332839155 831.4974470226755  5186.32361650951 3785.536534904514 607.5749987010279  6279.494406567803 3626.537318870017 269.072839662698  835.4559271800058 -4338.050146098019 988.1462617139077  3055.290925411648 -3804.661839707946 928.7522731705604  3563.412100622811 3619.358659503076 883.9852116787825  3431.9475598173 5293.949228855779 614.6929947683683  7169.554764061811 -1900.024000633457 180.5227805763423  6321.717814932292 -3923.892234458112 22.40987305418833  6524.449114091993 -1971.633894041747 -517.474742680939  1132.95862471128 1957.417539608334 -1178.027345064942  5069.776831702274 1906.159326775385 -861.6951856439596  5146.711553202158 3765.269285323369 -644.136647721406  1559.32641185481 -6461.12249880904 -488.9582195762818  -1087.879720492774 -6737.752693699826 432.8801285899332  1522.556512472342 -3939.357395220501 -998.2298533680015  6236.632193922131 3669.891361013201 -301.8528925005113  4663.110416909739 5302.795881576009 -362.4840404768437  3311.546707321259 5162.362429750011 -688.7889631145435  2613.191201377134 6428.18146628099 -390.0276419000086  1153.808040299762 6037.750961142086 -670.2000827798429  336.2849475483665 6959.960104349722 -354.0428679355116  -1186.317287683614 6212.805028499895 -617.621566012972  -1955.880675331624 6836.056051211252 -267.7025702724866  -3445.962414626516 5839.60120687256 -472.913294120859  -377.7242480014069 7238.700866677363 10.90986480187423  -2399.98706972062 -5609.179429009393 689.5447598986583  -3314.607908916029 -6201.394866771373 348.9552240257253  -4045.043652865937 6067.80737722686 -132.6558654380225  -5342.928587819613 4747.441501301527 -322.9440956342596  -5690.646302741903 4736.61317921758 25.51353289159829  -6675.087479597886 3126.029460049316 -199.2024809223432  -6766.472340017265 2967.320278677921 187.1441064856861  -5931.453391309993 2963.493383299047 -568.0868740390443  -5473.100023278059 4383.622291531293 398.0514051197578  -7061.664429647337 1297.256881402714 -358.6392625660068  -6252.204006315169 2440.033422257699 548.4220943567436  -6012.991650687423 833.6658995049324 -724.384391723896  -6749.970857289695 -938.7633963597572 -512.597247603274  -4652.808171480364 3677.343915273833 739.3511607713421  -1038.392963497552 -3005.697539217442 1117.255837125116  -4528.508419125938 -4795.866439767105 565.0324440060234  -5403.330341037347 -1272.87586953555 -823.0169259424812  -5835.311039056615 -2989.338419678448 -578.4650411519671  -7223.398159978276 824.0572145261453 317.7566596013882  -2515.839397279511 4837.694046737877 -829.8864975181957  -5146.411464866237 1571.560664237189 862.349988711071  1616.059883587981 4886.889654227126 860.608138604796  -6958.371266259869 -2447.921458371849 -199.6974852030036  -4379.461684706379 510.8749557582993 -995.6905448112748  -3412.819764408966 2798.971292189299 988.8867211670139  -4206.098260856956 -3217.137909897678 -853.3217165106799  -4402.278053133095 -4789.480653224739 -567.2772895305554  -3712.859082793377 5396.215497797193 550.2509767481223  -1892.609850888325 -6998.811510684834 93.13635236137603  -3593.999726681961 472.4044702250779 1083.459350765074  -5307.97646391048 -678.6683811885941 874.2364843148182  -2541.076773261812 -4804.805070272444 -812.6847724067159  -2548.350037981883 -6123.926211691927 -498.2216083504283  -2190.798317165654 -3043.265084942587 -1050.424225443209  3809.465762781561 6243.47907939309 -48.69561750097898  -5124.116881937708 -5143.195596695979 232.6003855325314  -6171.132321880674 -3473.019439651057 395.3453910463503  1344.657364379569 6290.278907092775 560.3915065163615  -487.9569621176721 5674.784310147432 754.02776678192  -169.9623187097141 4277.130872254434 986.6048252210161  -2039.342582162889 1808.28840773359 1144.013985398678  -3396.801612476218 -3923.353914982526 887.6926629803741  1772.086535986311 4777.773430765385 -894.0314102078003  -4211.717881617459 -5790.118172716014 -256.3049641377879  -558.4125062137505 3666.886423859252 -1068.002216822208  -1235.548022024186 1573.005839434471 -1188.007831224297  -838.3783598139319 6772.019343259437 408.3632701428393  -1589.750823554219 -1112.493302934959 1193.968097675321  -541.6295772716262 -5941.749036580406 -690.3638022558121  -3434.213283554485 -1786.996820453739 1062.464336656771  -5291.643571694041 -2876.059688611454 739.1132238944252  -6587.142517787771 -1381.03422741093 556.1493710892456  -7205.524873281999 -1793.095096722788 182.8309325532011  -7484.520126338862 -231.4167390972915 -100.8347431469501  -2890.679830149467 3116.226187547047 -1012.153058166404  -4382.365992691651 3446.386534192397 -817.3060469390904  -637.5326435908081 -6822.968098595165 -391.7901359881545  -257.52042851598 5358.369214285458 -842.0139587649023  2995.836370390053 6372.013992603695 309.1937313840943  6480.86677448275 -1884.620458454201 536.1804850819755  376.7833351464689 -2054.680327145289 -1175.258089746765  1189.987430352213 -7070.84146170996 -179.4388954302898  -2291.9390135058 4633.436909134121 865.0728192834389  7185.209574072009 1821.948252415244 -196.6152755638096  4801.334378083861 5254.482032947862 304.9083938067112  5664.069365767327 4761.70535563821 -26.90581374846463  -5738.0902869121 -4306.675553481374 -300.2972163074642  -2492.252097664018 6817.151621600614 86.90563301458873  -4180.057282815101 5879.950813769993 219.9228150303645  -406.5012621568673 -4434.275215112561 -963.6872742159611  -1753.463089466304 -808.8584379460298 -1185.900256256314  -3695.789709515503 -1297.693745551769 -1043.981225969936  1734.616809472881 7042.534785293919 -76.65998000995847  205.2735057906098 -7201.559868391763 149.5712832359965  4153.705271369613 -4582.796345028135 677.2371293370286  7197.846734419154 1845.282878306169 157.0856345551304  3291.740509044002 -1944.628379014383 1059.416883069662  -6356.565263728433 -3861.571094637223 42.44887480560594  -1344.894952984856 -4784.648706924121 912.7080392873912  3663.782268189824 3508.951263710043 -908.7910905463467  -6442.736236304635 579.9490875971011 634.9605397932172  1689.935955229286 -5400.471932231802 -767.3065486324173  1841.686207257425 3482.621399444113 1028.588143260337  1068.958425732672 7011.399343638394 246.8597550813977  -4677.784962250511 4546.833716047658 -584.383090894621  6288.068197744145 -3496.177691397487 -322.9193180894026  -115.9316037843194 1887.078286674255 1184.718995254129  5696.505668988604 -3403.164971234954 562.5189322792315  -7298.887573948083 1729.738501283734 -24.89054586056048  -3883.535902016397 -6203.993866778501 25.75268312085013  -2370.961144541918 -6772.073999935334 -191.3259676950169  6742.593745417898 3200.361615903167 -19.67119638647196  -1680.625778297168 3574.359937705631 1031.144865710016  2088.713575545044 3244.702303562925 -1058.361017006604  -2537.369618919726 534.0876976957708 -1154.828304775247  -2750.325110502986 6343.757677762494 384.1780089288934  6395.129394354922 -3251.913973996883 340.2754318002669  -510.2372273727422 -7195.319728660556 -111.4695619217996  -4824.741805103387 1887.20893452895 -890.1886583553518  -3298.509642810495 1604.031844274179 -1074.314011377661  -2104.409451698844 5833.887790954037 638.6730436268944  -5284.011362799636 -5136.839150108253 -56.01604250660775  0.003979039755315925 0.009593838545250904 -0.004995237233744763  -2398.50276884493 -2837.775101634149 43.58137667719063  3627.988875815165 1105.683669955039 -12.45717174028723  -1446.657201900217 2984.419165904287 266.216162587207  2705.436724176715 -2116.30745584521 248.8825634717028  -1762.599288708684 310.4321610284348 -547.0348335218179  -3732.079650911459 564.8308167846743 3.5084184702349  711.8209083944445 3374.824386177859 -244.6751603333314  2521.471748841815 -1664.257983191141 -368.2712710035765  -1960.981057307649 -315.3296189602561 535.2641960236675  1879.316031026581 2510.617582341253 420.9413323294305  -693.2477383255239 -2865.726718145378 -458.4494649608067  622.3164097706027 -4138.869635341287 10.98830383443087  1496.89306937704 1098.821600537948 -
[...]
<PointData  Vectors="Tidal Force"> 
<DataArray  type="Float64"  Name="Tidal Force"  NumberOfComponents="3" format="ascii">2.8060872260290311e-13 -1.8718339412374186e-13 7.2806243096294732e-14  -2.8066712901143748e-13 1.8722235481493722e-13 -7.2821397119800109e-14  1.7752481858015206e-12 -1.1842004687095423e-12 4.6060275594007692e-13  3.6559978142190450e-12 -2.4387769326149327e-12 9.4857872967203409e-13  5.1773484749207371e-12 -3.4536120299740683e-12 1.3433056825989425e-12  6.1917947831529205e-12 -4.1303105351731198e-12 1.6065121283579704e-12  6.6012918477891517e-12 -4.4034704345921761e-12 1.7127595128247570e-12  6.3660649046174931e-12 -4.2465594975272124e-12 1.6517279459921408e-12  5.5084154672966668e-12 -3.6744542145663165e-12 1.4292037391685915e-12  4.1108815254872312e-12 -2.7422125358170341e-12 1.0666020532377916e-12  2.3093163854402444e-12 -1.5404570289997254e-12 5.9917114687324993e-13  3.6255875441754589e-12 -2.4184913993992259e-12 9.4068853476690101e-13  1.8238909897092689e-12 -1.2166482310267273e-12 4.7322353184947218e-13  7.3827355235746946e-12 -4.9247417557159542e-12 1.9155115074796650e-12  5.9599992164826578e-12 -3.9756885387158820e-12 1.5463708604062949e-12  4.6806360407404844e-12 -3.1222740784275704e-12 1.2144295525327505e-12  4.4179045463498254e-12 -2.9470159025338688e-12 1.1462617034643933e-12  1.4990248110394098e-12 -9.9994237314971717e-13 3.8893432744197764e-13  2.4112063651285378e-12 -1.6084239547899951e-12 6.2560734087838129e-13  5.4536205216899591e-12 -3.6379025927765560e-12 1.4149867394499627e-12  5.1848683000195431e-12 -3.4586282189654682e-12 1.3452567631252597e-12  6.7202121627659383e-12 -4.4827976485901535e-12 1.7436143675169980e-12  6.2114242036211958e-12 -4.1434045741390194e-12 1.6116051430910693e-12  7.3863664553052498e-12 -4.9271638120185978e-12 1.9164535826075825e-12  6.5175613939543517e-12 -4.3476170370393916e-12 1.6910349572945063e-12  7.3956384726600903e-12 -4.9333488217458580e-12 1.9188592838390615e-12  6.1435510897034923e-12 -4.0981290042457693e-12 1.5939949049425283e-12  6.6377374467146293e-12 -4.4277819058980678e-12 1.7222156234921126e-12  5.1078351143633562e-12 -3.4072423140030813e-12 1.3252698689569589e-12  5.3108217200240166e-12 -3.5426469495282178e-12 1.3779364148146067e-12  3.5140702414804084e-12 -2.3441024530102580e-12 9.1175445255396656e-13  7.5069805561295379e-12 -5.0076208860612398e-12 1.9477479039814796e-12  3.5411026742304218e-12 -2.3621347595851671e-12 9.1876823976637221e-13  2.4754972193227983e-12 -1.6513099356232650e-12 6.4228813225192576e-13  3.4515461811443137e-12 -2.3023950330856472e-12 8.9553207039145986e-13  3.5001792506506395e-12 -2.3348363019542991e-12 9.0815032063027110e-13  5.1236632510761853e-12 -3.4178006613170184e-12 1.3293766093269164e-12  1.2105652936893386e-12 -8.0752201278446827e-13 3.1409113101950173e-13  5.2740986906580009e-14 -3.5181504149391476e-14 1.3684083225356004e-14  7.4506183718938220e-12 -4.9700238190577373e-12 1.9331242712987902e-12  7.8556376118757509e-12 -5.2401967321518181e-12 2.0382098472968319e-12  6.7669664927977414e-12 -4.5139856818920230e-12 1.7557451633330528e-12  -4.2015623419376278e-13 2.8027022556220656e-13 -1.0901299375651826e-13  3.1393103883200225e-12 -2.0941144246796286e-12 8.1451992356700309e-13  2.1673547422966285e-12 -1.4457598223251869e-12 5.6233802990813753e-13  5.0430672744993977e-12 -3.3640381541917164e-12 1.3084653197247870e-12  3.0903706851688906e-12 -2.0614686121822004e-12 8.0182211470478875e-13  3.4173979009545228e-12 -2.2796160156334382e-12 8.8667201798198234e-13  3.2584107897231247e-12 -2.1735617674754584e-12 8.4542150316505233e-13  9.0611215480225934e-13 -6.0443291648022927e-13 2.3509825782713654e-13  -2.7292827988062703e-13 1.8206006323155474e-13 -7.0813489005337572e-14  -1.5597042023059595e-12 1.0404192845774084e-12 -4.0467809502877282e-13  -2.6764688038890219e-12 1.7853704273021617e-12 -6.9443186429863797e-13  -3.8626396876138181e-12 2.5766198580640431e-12 -1.0021936648340604e-12  -4.8221645030208045e-12 3.2166823266424104e-12 -1.2511502771568647e-12  -5.7833977058774204e-12 3.8578843954382405e-12 -1.5005501446672013e-12  -6.5550145034270486e-12 4.3726005802684027e-12 -1.7007524748673298e-12  -4.5698342165499814e-12 3.0483624005057453e-12 -1.1856811071077571e-12  1.3353992575302362e-12 -8.9079399676597389e-13 3.4648033059166212e-13  8.0149654271569313e-13 -5.3464782510084374e-13 2.0795487605842096e-13  -7.1372971933109348e-12 4.7610191911403384e-12 -1.8518305122041917e-12  -7.5469840787749007e-12 5.0343057128057803e-12 -1.9581271472473709e-12  -7.7666116436671617e-12 5.1808108985973211e-12 -2.0151113269687596e-12  -7.7388442636097551e-12 5.1622883366582036e-12 -2.0079068516272447e-12  -7.6380932088878845e-12 5.0950811443462435e-12 -1.9817661610804682e-12  -7.0746076481506594e-12 4.7192013825906749e-12 -1.8355651936417535e-12  -7.2838680755280569e-12 4.8587910456950426e-12 -1.8898595341909370e-12  -7.0433407507818983e-12 4.6983444259041024e-12 -1.8274527397252078e-12  -6.7952254601269777e-12 4.5328361629820352e-12 -1.7630771850390712e-12  -5.9341203103011988e-12 3.9584257057920803e-12 -1.5396563651581205e-12  -5.4947727037031688e-12 3.6653536464479394e-12 -1.4256640118447935e-12  -6.0719350984388716e-12 4.0503567033917497e-12 -1.5754135464543510e-12  1.1034625420393488e-12 -7.3607784530501483e-13 2.8630244041651544e-13  -1.0387190381789455e-12 6.9288991911498107e-13 -2.6950420536080439e-13  -4.1871262246282033e-12 2.7930724714482837e-12 -1.0863843680887700e-12  -3.5052460065910001e-12 2.3382161419154949e-12 -9.0946493216936254e-13  -6.7540343405080792e-12 4.5053591355165219e-12 -1.7523898099619040e-12  -5.2325571325878962e-12 3.4904396233264626e-12 -1.3576300233174005e-12  -5.2437808974279273e-12 3.4979265694845001e-12 -1.3605421215010173e-12  -1.2474927454852249e-12 8.3215490979272172e-13 -3.2367226238077670e-13  -4.7224014900433063e-12 3.1501342193565050e-12 -1.2252659421743877e-12  -4.3722550708794658e-12 2.9165648756404448e-12 -1.1344175712596487e-12  -4.4115187790167287e-12 2.9427562002965116e-12 -1.1446048635611388e-12  -2.0036269775725195e-12 1.3365432647318518e-12 -5.1985751351668772e-13  -1.1896265962297499e-12 7.9355460499093914e-13 -3.0865841359282374e-13  -6.2965126064544234e-12 4.2001638077620972e-12 -1.6336820296678205e-12  2.4591677609367173e-12 -1.6404171757099015e-12 6.3805131984688052e-13  -3.1861328591617813e-12 2.1253479121212260e-12 -8.2666839907714758e-13  -4.0647307283436189e-12 2.7114270963241845e-12 -1.0546278489979592e-12  3.9796179895068371e-13 -2.6546516290797752e-13 1.0325446482447475e-13  1.2360061518067893e-12 -8.2449264052430506e-13 3.2069197109138576e-13  -3.8054208760529332e-13 2.5384513675896754e-13 -9.8734777313995864e-14  -3.2314318961809340e-13 2.1555651748674778e-13 -8.3842160714086006e-14  -1.4340768847491365e-12 9.5661808454049976e-13 -3.7208305330399768e-13  -3.2949147950571359e-12 2.1979121994725451e-12 -8.5489276785591327e-13  -2.3763912784413129e-12 1.5852001361133069e-12 -6.1657428003388417e-13  -3.5811159312772104e-12 2.3888260797782413e-12 -9.2915000870284814e-13  -2.4300716350851545e-12 1.6210082580460898e-12 -6.3050209047061821e-13  -2.5896038727962079e-12 1.7274261393218932e-12 -6.7189404284026520e-13  -4.8244666889572023e-13 3.2182180272203598e-13 -1.2517475982500350e-13  -1.4463714337456316e-12 9.6481931003711853e-13 -3.7527297525187965e-13  -3.6522013976643081e-13 2.4362444876872355e-13 -9.4759371814418469e-14  -2.8818987443067062e-12 1.9224049184089691e-12 -7.4773235347292752e-13  -2.2772707359576935e-12 1.5190805964305496e-12 -5.9085663930996624e-13  -4.6104169360799808e-12 3.0754335874379736e-12 -1.1962106277734101e-12  -4.7234236021926578e-13 3.1508160314524232e-13 -1.2255311375857317e-13  2.8478186049268730e-12 -1.8996713550964885e-12 7.3888998075753964e-13  -1.7269947579506688e-12 1.1520124443336596e-12 -4.4808300685405073e-13  -2.7939094898496044e-12 1.8637106371231901e-12 -7.2490281706207605e-13  -4.8491531309644161e-12 3.2346854126989236e-12 -1.2581526988516413e-12  -5.2359008994764925e-12 3.4926701228973961e-12 -1.3584975911630835e-12  -6.4604204576048464e-12 4.3095004941532847e-12 -1.6762092709650786e-12  -4.5947980889977348e-12 3.0650148492674868e-12 -1.1921581893210137e-12  -6.0538437133953347e-12 4.0382886292939945e-12 -1.5707195876735605e-12  3.3478748059957200e-12 -2.2332398062139195e-12 8.6863367866941450e-13  -3.5570670925631627e-12 2.3727840151785605e-12 -9.2291033952450874e-13  -1.0314279715135658e-12 6.8802632616409621e-13 -2.6761247809321638e-13  6.9178107772392983e-12 -4.6146081603525192e-12 1.7948829547062748e-12  1.2667522586994493e-12 -8.4500219771438475e-13 3.2866930163167490e-13  5.1464368832038952e-12 -3.4329920841589346e-12 1.3352854156587215e-12  -4.5300351163344870e-12 3.0218139361803879e-12 -1.1753549029241342e-12  5.1980146091404991e-12 -3.4673976212086857e-12 1.3486676812492619e-12  1.2078785988967554e-12 -8.0572982098948280e-13 3.1339404593825436e-13  2.1786174447423492e-12 -1.4532727422773549e-12 5.6526023077409124e-13  -2.5847561408878513e-12 1.7241924019526803e-12 -6.7063625888931888e-13  -6.1625672428821553e-12 4.1108139559541177e-12 -1.5989288024288208e-12  -7.0654767796164450e-12 4.7131105278671370e-12 -1.8331961146337460e-12  2.0210904937243113e-12 -1.3481925113992582e-12 5.2438856654479559e-13  -1.3362948224610973e-12 8.9139139403096888e-13 -3.4671269228541128e-13  -2.7233594155407376e-12 1.8166493688834865e-12 -7.0659801950287199e-13  -2.6197756500049460e-12 1.7475525830485522e-12 -6.7972235881608471e-13  4.4331924237837107e-12 -2.9572138634542493e-12 1.1502282691169259e-12  6.4868493574666698e-12 -4.3271302069191757e-12 1.6830664666012616e-12  5.2760358365410592e-12 -3.5194426111971264e-12 1.3689109309818622e-12  4.2714407425483498e-12 -2.8493154759130224e-12 1.1082604638540747e-12  -3.3105579781429378e-12 2.2083471712643639e-12 -8.5895152048477027e-13  1.8298095057740894e-12 -1.2205962477345217e-12 4.7475913956468380e-13  9.5487177152707631e-13 -6.3695860017980500e-13 2.4774934178354264e-13  -5.8531495592696502e-12 3.9044132008982751e-12 -1.5186478372384984e-12  4.4729769223970715e-12 -2.9837525876068076e-12 1.1605506847946722e-12  -1.8840933953061210e-13 1.2568069634763237e-13 -4.8884354157764028e-14  -3.1124093699892118e-12 2.0761697796599086e-12 -8.0754023290748450e-13  -6.9048834921503484e-12 4.6059848607012846e-12 -1.7915288641704180e-12  7.4968178410445452e-12 -5.0008417257932494e-12 1.9451111038915437e-12  -9.3732551296319493e-13 6.2525415919987183e-13 -2.4319682055546880e-13  7.1245645962504318e-12 -4.7525257604597551e-12 1.8485269350800196e-12  -7.4289836647325328e-12 4.9555921296941303e-12 -1.9275109684253398e-12  2.2972700636800199e-13 -1.5324213864406867e-13 5.9604562952526577e-14  1.8414226466710168e-12 -1.2283429318338615e-12 4.7777226457166969e-13  4.0421128466386640e-12 -2.6963395686587885e-12 1.0487594533955014e-12  -3.3348988488996575e-12 2.2245840393200216e-12 -8.6526695978063654e-13  -3.0765088975433891e-13 2.0522219414718401e-13 -7.9822555979284590e-14  -2.8043642369772655e-12 1.8706846008471562e-12 -7.2761538726953876e-13  -6.0441482495786222e-12 4.0318211545555679e-12 -1.5682040197716676e-12  7.5988733055570226e-12 -5.0689190402085739e-12 1.9715902342966072e-12  3.7416800155390380e-12 -2.4959322665984957e-12 9.7080968215442325e-13  -5.5455473415224234e-12 3.6992234739937534e-12 -1.4388379096121351e-12  -4.0812500075574369e-12 2.7224464784839324e-12 -1.0589139119793967e-12  -5.1201978041698089e-12 3.4154889936394289e-12 -1.3284774705989304e-12  -1.6439846498211257e-12 1.0966395619722830e-12 -4.2654535094703277e-13  0.0000000000000000e+00 0.0000000000000000e+00 0.0000000000000000e+00  -4.3403749062210967e-13 2.8952988316963221e-13 -1.1261460000962967e-13  2.5355584760990258e-12 -1.6913745130691391e-12 6.5787151975662243e-13  -2.9581239746448332e-12 1.9732518671431536e-12 -7.6750961698273752e-13  3.6724197494186395e-12 -2.4497313802893554e-12 9.5283953594762952e-13  -1.8544326741720582e-12 1.2370214257976236e-12 -4.8114782330749262e-13  -3.6076275735511244e-12 2.4065109868566588e-12 -9.3602867253899737e-13  -1.4076577192887345e-12 9.3899486522314118e-13 -3.6522838333839853e-13  3.1054054681657926e-12 -2.0714977434407341e-12 8.0572301292213136e-13  -1.4154452404266570e-12 9.4418962404918640e-13 -3.6724891980578216e-13  2.7558577146894305e-13 -1.8383277468094267e-13 7.1502997074832262e-14  9.6550660508105188e-13 -6.4405269270162310e-13 2.5050863689681351e-13  2.9736454777128549e-12 -1.9836056708283147e-12 7.7153679872929148e-13  5.3066115914088279e-13 -3.5398385330378867e-13 1.3768440622869275e-13  1.4774290414838086e-12 -9.8553665758024026e-13 3.8333112725086420e-13  1.5321947838862485e-12 -1.0220687990244035e-12 3.9754054995773993e-13  -4.1321901302008719e-12 2.7564266946548004e-12 -1.0721307461466702e-12  -2.4771423331631848e-12 1.6524073284252674e-12 -6.4271497058066049e-13  3.3315015428032376e-12 -2.2223178257821592e-12 8.6438550074674027e-13  -1.4359896946286385e-12 9.5789404717714699e-13 -3.7257934757379878e-13  -1.8717501743025144e-12 1.2485732707370418e-12 -4.8564099127683711e-13  1.2112418345881957e-12 -8.0797330745748107e-13 3.1426666512510566e-13  6.8195322604787202e-13 -4.5490503039678287e-13 1.7693837844878928e-13  -4.1359670779527655e-12 2.7589461526854332e-12 -1.0731107063333516e-12  4.7941391613257048e-12 -3.1979876883171798e-12 1.2438788715448677e-12  -2.6470465755898086e-12 1.7657439791125093e-12 -6.8679802495780403e-13  -2.8875933691388120e-12 1.9262035858005147e-12 -7.4920987076470190e-13  3.5141189134875201e-12 -2.3441349202529200e-12 9.1176708090688766e-13  4.8850925410159304e-12 -3.2586592246811228e-12 1.2674774746486170e-12  -4.4576160369525194e-12 2.9735059258224332e-12 -1.1565651766127583e-12  1.4927850597276498e-12 -9.9578007264034822e-13 3.8731537259748639e-13  1.3316612473840334e-12 -8.8830051252947210e-13 3.4551047308731798e-13  1.6032315782662351e-12 -1.0694547396907353e-12 4.1597163104615554e-13  4.0501729310164137e-12 -2.7017161440437452e-12 1.0508507086392437e-12  -5.3271511784100984e-12 3.5535397094415809e-12 -1.3821732272196519e-12  3.5778062347935930e-12 -2.3866183072771715e-12 9.2829128070420984e-13  -3.7643027644447020e-12 2.5110230409881569e-12 -9.7667934059217264e-13  -1.2554603530494621e-12 8.3746979741661927e-13 -3.2573952375396864e-13  2.4372994281412893e-12 -1.6258296435815134e-12 6.3237740087940880e-13  -7.8226623270573570e-13 5.2182001752477820e-13 -2.0296541381927535e-13  6.6719587349150859e-13 -4.4506096242142700e-13 1.7310946184309717e-13  </DataArray> 
</PointData> 
</Piece>
</UnstructuredGrid>
</VTKFile>