<?xml version="1.0"?>
<VTKFile type="UnstructuredGrid"  version="0.1"  >
<UnstructuredGrid>
<Piece  NumberOfPoints="201" NumberOfCells="657">
<Points>
<DataArray  type="Float64"  NumberOfComponents="3"  format="ascii">-15.59967243252537 0.8411402432330883 62.68972126523771  -8.337677972089253 -1.624640384451782 -63.428629091475  2494.058959079217 -28.66437166117819 -81.63999759120931  4165.446968925115 -36.82123383178882 -119.3684843174311  5010.619845149725 -40.00823688733735 -155.5310530816805  5415.965731509101 -39.65347640094687 -107.5734704735484  5539.726892832141 -40.34921540645362 2.01961071424205  5417.056859278874 -41.32426002874676 108.8542385758867  5010.738267156808 -41.54574818559266 153.9808575307327  4168.10065247692 -43.05978059293334 117.7174992928523  2496.938832277901 -20.75765284420498 79.66852676405531  2902.046226480286 -1392.740049886667 -104.5437530687978  2974.317665755368 1062.146606905801 95.10153793119403  5340.082419727894 -1007.559740888957 -54.89684900663178  4417.35217150471 -1211.165035029686 144.7576367660149  5065.820175214899 983.110675371813 136.927848034201  5064.791296513357 982.8172462931884 -136.0618974130231  3224.331817614893 1191.050548826311 -109.9760030452494  1222.916791165973 -1338.713082912341 81.63799262003175  4420.426490188575 -1128.388451255114 -140.7647104141301  3131.361977447904 -2203.632887476645 -133.580742768084  4231.817484240881 -1996.516945694028 -132.7541882838786  2903.244278934078 -2819.791666289121 -125.3726878765592  3871.545607636969 -2545.958645733169 -76.27227576528021  2446.342618057406 -3200.912524802456 -60.75573046213535  3422.664050237685 -2859.6946745502 15.84511407747284  1812.59111848767 -3391.579694612115 28.5732206102678  2704.122336671961 -3029.382109721763 101.0097969677742  980.5818320980088 -3394.797233542269 99.17960689633315  1875.578594360737 -2956.096027106138 132.214462403311  -68.64173062883999 -3159.670230040814 128.3506709509049  4075.310825478678 -2374.21165414343 87.62833185973905  4437.296844876014 1058.743448375873 144.3506505539187  4170.172604334717 1955.194040750723 137.0619578288026  4726.897934155696 1782.517832310253 77.12017309878128  788.6603530825575 -2604.923344140482 110.5359726129905  2779.299825962051 -2234.227883028662 124.5724108211679  3182.675345109401 2044.182483656677 131.5777540373298  2783.514141728477 2758.912440974944 126.3453450139829  5349.431083872802 -984.4589272323003 53.98063830717517  4706.757660900694 -1970.339710671038 4.394080458637986  5098.761186480828 -1051.931555996639 -128.1754323125731  1198.367676445798 1324.37013083885 -77.55687707284589  4415.889104951845 1041.431550759572 -144.9796023694093  4147.845433924271 1952.049465798283 -139.7328640391371  1232.225742736574 -3326.966471134664 -107.7986929193871  -863.0898452622365 -3409.94158031601 94.58131391659661  1466.126461494869 -2395.57342639914 -108.1195952789415  4698.035094090516 1808.932612853912 -82.00869119435578  3572.165051979945 2630.372149485013 -89.74115693233747  2733.591534137958 2719.029932787731 -131.2130522505405  2022.807273983195 3212.073486633018 -87.43281030431301  940.553547908801 3181.149487921876 -123.5978462528415  232.4312518357844 3474.17794809006 -78.79427204486529  -997.6396789003277 3260.142794784541 -119.3165309580212  -1535.737982910673 3413.220587662322 -63.702579148744  -2726.500188298695 3012.546509398417 -110.0430908543881  -322.4771035582191 3556.189582109149 6.3375570010721  -2000.801337700553 -2974.768185372666 126.3891232480615  -2553.535785685505 -3098.862575267203 81.33822377724269  -3072.166353287511 3038.776908098223 -33.10503354517279  -4067.340823907188 2440.097671280619 -85.63280975632239  -4242.504469078589 2399.950464488093 7.074443328727011  -4982.972547325546 1609.406772160752 -58.27533037838673  -5035.136630191215 1530.000256621186 52.78584120261281  -4673.983833385811 1597.974826488275 -135.0838934012304  -4201.748562024937 2275.520142836901 104.4305947054648  -5312.355090700408 707.6290042001854 -104.6298636902482  -4889.03137807051 1317.465028038414 132.4749822830485  -4931.522092755494 495.6624344865579 -152.6531658321591  -5215.246494500096 -460.4103945069264 -136.9316708210368  -3894.811238965196 2046.76526436155 140.9741000023903  -1090.924619708593 -1927.492201190511 86.85703508125818  -3591.814662886539 -2472.041375947853 123.8858276224347  -4631.099415077555 -687.2713961369509 -147.0923358982685  -4627.378745830608 -1553.228647232736 -136.1440626081808  -5387.080203150728 463.1219499157279 93.23937069502271  -2206.237901038183 2718.745792935455 -133.3165118108469  -4463.740602691242 933.5752581248894 142.119634465495  1434.607065925647 2758.306330066569 127.0203891077732  -5165.750701956964 -1211.438107598545 -63.31168697771611  -4096.394516270388 332.037602036275 -120.263954826225  -3197.557976047207 1729.835913980684 118.0548382533009  -3681.781347649251 -1807.494393398505 -137.924516280739  -3516.780980986582 -2476.919853137983 -127.3178420796819  -2971.341578374451 2841.268943060732 123.475429782636  -1442.119378908009 -3443.105158185724 20.47783801425854  -3561.51120963281 324.6820439743612 98.77405278443844  -4624.058293772421 -357.2831365941984 143.6219876417971  -2219.516173341709 -2662.268773341783 -132.3827921632666  -2029.583649136611 -3136.666218642229 -112.9976073595038  -2172.947872428084 -1887.669140484012 -105.8310594677104  2881.012865123661 3043.82960653014 -8.801010199657004  -3865.977469390309 -2543.825036852243 58.5722479593204  -4712.038568894366 -1747.845105705267 103.1513591614157  1074.537914914846 3251.806172920296 116.6441420002982  -449.4049045674844 3096.058980857865 125.2751614236991  -173.9971575216589 2565.466085044508 112.5991577913756  -2133.714023908603 1224.132413648939 88.05077788877021  -3005.135531451549 -2217.067718530372 133.6984922959392  1576.175630118257 2710.355837062813 -124.866719287412  -3201.023024534539 -2875.594315726569 -69.70214010423159  -557.2006236025529 2294.275018134328 -100.6297350247432  -1339.184725676742 1095.99662613129 -78.86929934239009  -693.7042015604749 3428.740437703696 92.61287709004846  -1738.673999525995 -772.4929639924275 73.52824201586219  -447.8622455398149 -3191.180391812861 -126.0429805296291  -3332.578702853021 -1097.405303589379 110.1646624971357  -4386.639329722014 -1546.459908963392 141.3386635375208  -5126.230801387277 -696.8332597206702 141.0905417839697  -5318.303383159227 -880.1266191635327 53.27179181641463  -5488.502520248139 -80.21655710187929 -35.27031088175764  -2754.681976817066 1920.171703278553 -116.9459165923751  -3765.345676538994 1963.25170603861 -140.1642131974841  -504.8437266816854 -3449.547101745148 -92.22441450817324  -247.4128606722203 2985.870375028294 -127.2453625998318  2303.168463576574 3161.205746135009 77.76401603390779  5086.842429363053 -1008.612276966155 130.9093451791086  384.3323214458026 -1406.31911619843 -75.01624542174629  902.3122145578269 -3511.241613124119 -47.61316613347407  -2058.748823863633 2661.008001640715 127.2625548466383  5339.692574669608 879.1350873166156 -57.31558451093004  3662.294219148125 2598.196112910889 82.56915045396464  4221.962450198663 2318.684976593443 -4.517713032641579  -4350.475348882907 -2149.038400403184 -81.9994937469084  -1920.774631428706 3383.783679212084 23.01172333708772  -3183.364721681463 2965.085165726523 59.38213246373584  -381.6954831974554 -2642.281678995058 -111.2694736250523  -1900.06239322481 -550.1975091196514 -76.01512881476668  -3596.707405796384 -783.8165160995418 -110.5234547281463  1302.710146227429 3451.237475068156 -15.30988463269672  147.5234136408774 -3559.605745689879 34.72841224135929  3391.014130356479 -2466.282696434176 135.2826849555365  5339.664588812654 890.9723472158007 52.51015930093688  3199.518048510069 -1232.075111201309 111.6724950813169  -4733.640347729965 -1900.286826458745 9.436402980798924  -1226.516160871888 -2742.756050321843 119.481183766552  3274.481169952903 1983.789730576408 -132.3093394719851  -5112.295224435387 345.7978794982622 149.1607329888059  1445.679992920385 -2979.220998303194 -128.2576239676216  1788.985735435796 2135.206487223978 104.7341831133881  796.5412351049067 3469.914416426523 62.23095243208861  -3747.635209964746 2423.222453733231 -129.2635685245508  4769.085445193651 -1783.723382532187 -85.87570687002504  -130.4959542060312 1295.622385138557 71.09143407886211  4497.706487216498 -1804.722693073661 128.103458877088  -5363.476672847626 914.1713370714471 -9.518853388590339  -2918.279802921082 -3049.711886974099 1.395800101310303  -1812.590748250716 -3348.123571995439 -52.04383413407858  4998.360638195207 1552.031995809753 -3.144659317434635  -1652.917977856127 2216.062069718906 106.5309238415534  2049.051827745163 1989.683393796575 -107.1715073752486  -2676.579444531327 386.7043069976396 -80.98132413221251  -2168.453430220864 3227.419661052238 92.48609982693722  4853.033775633547 -1668.232074492295 90.18422434681098  -395.5543084050363 -3553.572573941105 -30.82629449172673  -4273.290654558235 1134.137930462474 -133.0055159883358  -3234.881168357085 1051.451173489392 -104.8755470841421  -1757.444375879046 3101.877550258506 125.5703061088001  -3951.937204101048 -2523.708499185251 -18.09712937735325  -6.47410139634815 -0.2985783124496579 0.07875892269876932  -2386.402450299473 -1768.399584801143 1.813472483717198  3591.522481896403 669.675480173339 -1.668234208713182  -1490.959973397777 1927.288026169048 23.33519757969313  2726.951000638277 -1375.101619272534 23.84697231997172  -1947.554266890799 237.0884842825106 -32.53231138561251  -3679.655288040972 385.7596255452424 -0.1375413148052341  720.80601640161 2147.506582082771 -20.93279302994229  2616.337781706917 -1105.277001163255 -28.2014885093111  -2137.800102914844 -204.7095922904592 34.35059265985481  1946.844989347158 1613.125362058789 34.31853187027265  -731.5205709234622 -1863.67457518038 -37.59732330781739  610.0649807759809 -2527.913589812885 0.2939240284434198  1638.319840385866 746.4125097934027 -37.1
[...]
<PointData  Vectors="Self-Gravity"> 
<DataArray  type="Float64"  Name="Self-Gravity"  NumberOfComponents="3" format="ascii">2.4280228606738609e-07 1.1040044680887484e-07 -3.8713328232267294e-05  1.3726712365538187e-07 -4.9793945373907595e-08 3.7108647378173161e-05  3.9370548959988175e-07 7.3887728647954700e-08 5.3929114713844928e-05  3.2952593078913488e-07 -7.1538298091989523e-08 2.8618002004977936e-05  -1.0393805525497224e-07 3.0886157495551444e-07 3.7072824663989467e-05  -9.7167508552942660e-06 -5.9018760725877567e-08 4.4982856682312983e-05  -1.4814173940462393e-05 -9.1318695872739356e-08 1.2534001753025020e-06  -6.9141238749279132e-06 -1.9140943892135423e-07 -2.6589277044705379e-05  -6.0331175774860231e-07 -5.7305544758859329e-08 -3.3556810251978306e-05  4.0838927547407850e-07 3.4190977343252085e-07 -3.0060724964065766e-05  9.0063149831020135e-08 -2.2876401556690213e-07 -2.2560659439266232e-05  3.9182338730553635e-07 -6.3460715887396632e-07 -1.6454586798548952e-05  3.3564123250676835e-07 2.5874406668328340e-07 -3.9558771673797171e-05  -1.9205608394207450e-05 7.8385861480836648e-06 2.5340531763144990e-05  1.0051964982456666e-07 -5.1109297119228844e-08 -2.1657475981529015e-05  -3.5153706227092243e-06 -1.7806521943880694e-06 -4.5004469921727133e-05  -2.8419359847550443e-06 -1.5424483412861008e-06 3.9440940805458388e-05  5.8664654056413175e-07 5.8387797962944340e-07 5.1109446061374403e-05  2.4182949050614199e-07 -2.4226552285509497e-07 -3.2681145963860859e-05  -6.4159733712043337e-07 3.8809006499855216e-07 1.4253209764280685e-05  -3.1850186179480461e-07 3.5449958198717393e-07 1.7025500953372284e-05  -1.6394408242337290e-06 2.0905134985513242e-06 3.4061626751423179e-05  -6.4359621288368649e-07 1.7446820435241948e-06 3.2005477582966239e-05  -7.4308963499822783e-06 1.1951657215562038e-05 3.0871855137192776e-05  -3.4273493341984850e-06 1.2109522074122740e-05 2.1702059383886714e-05  -7.9493120550319743e-06 1.6626908021308158e-05 -1.1582507645393053e-05  -3.0227923669908707e-06 1.4846731841027656e-05 -8.2407762565975540e-06  -2.4368636131589918e-06 6.3347324688710753e-06 -3.2210240428885166e-05  -4.8458255361189079e-07 6.7416782580173683e-06 -3.2892644578874450e-05  1.3847400146669425e-07 -8.9413188802191250e-08 -2.0051140063614832e-05  2.0720138638919261e-09 1.2500663722119040e-06 -3.2738608499050522e-05  -5.3558186942730426e-06 7.8864059827866178e-06 -3.6517625651863328e-05  1.7064666606982451e-07 -3.8666299300691100e-07 -2.9716405983464150e-05  -6.4663631829540286e-07 -1.6880415252260828e-06 -3.2426514213274843e-05  -1.1164454006862301e-05 -1.0737203024846317e-05 -4.4007478193539840e-05  -3.0167235115131293e-08 -9.2428603515664529e-08 -2.9888836873574392e-05  -1.2972770449456643e-08 -1.1314042840309501e-07 -2.6695039602474624e-05  -2.7235483626414898e-08 1.5206775033231459e-07 -3.7567433702023731e-05  -1.2618353585826465e-06 -3.0913658859286725e-06 -3.3779097515581882e-05  -1.7359253341368684e-05 6.8331014443682446e-06 -2.7283587984564472e-05  -1.2531899897519325e-05 1.2948661357194187e-05 -4.3890437935553383e-06  -2.6883898982975558e-06 1.3505228364230600e-06 4.3308657613350276e-05  9.5540846311331253e-08 5.3091238675432732e-07 3.2520731794864324e-05  1.2248982888840539e-07 9.7011723056886458e-09 2.1607942062570210e-05  -1.4046850333431122e-06 -1.7963740808439875e-06 3.8968296830001832e-05  -6.2954093431889902e-07 4.6788724220588886e-06 3.8016816504947140e-05  4.7384966199491808e-07 6.3886791460953182e-06 -4.0329178459891185e-05  1.1083225632568965e-07 -9.5809594378521668e-07 4.7070506569901601e-05  -6.3053913219237631e-06 -6.1030708808709890e-06 2.8390192378906422e-05  -4.5343036543865298e-06 -8.7895032412864806e-06 3.5271249553861559e-05  -3.2989449835180408e-07 -1.5876264711497203e-06 3.8062040618553899e-05  -1.9037787470151106e-06 -7.9676825841952346e-06 3.6185794409273539e-05  -1.5146659370857098e-07 -1.7639306371017793e-06 3.4805010664356134e-05  -6.5511181050091882e-07 -1.0901751334783241e-05 3.7957784496933604e-05  1.7106193723518554e-07 -2.1757727419790707e-06 3.5658292487163331e-05  1.9923993856332719e-06 -1.1915461719631021e-05 2.6851242170816015e-05  1.7502435710372491e-06 -5.5580180766901234e-06 3.8757737670936090e-05  3.7853257729342023e-07 -1.8398316127452421e-05 -2.3084666792459626e-06  2.6528104087409593e-07 1.0045887513626544e-06 -3.6677693235204160e-05  2.2746774801258010e-06 6.8211338517066430e-06 -2.7650718385873813e-05  5.3630375486295424e-06 -1.3724111570135635e-05 1.5765863939889527e-05  7.2859673029401985e-06 -9.9158236476982193e-06 3.4983922387372313e-05  1.3844210286674877e-05 -1.7786059877529058e-05 -7.7466130167556570e-06  1.0451339322880907e-05 -7.8276069977728524e-06 1.7284997194113930e-05  1.1226502154921457e-05 -7.4040347477871398e-06 -1.5207362059409658e-05  3.3286381640220539e-06 -2.5061793301164133e-06 5.7952203136661690e-05  5.0550644130273749e-06 -6.2172048405034528e-06 -4.3972450849921590e-05  -5.0021329308666940e-06 -1.8956376109365332e-06 -7.3501857386656071e-05  3.9511780301480568e-06 -2.3202154715777846e-06 -5.0638251704723225e-05  -1.4245243670702775e-07 8.4590403612949318e-07 1.0292576750676124e-05  2.8455775268565696e-06 -1.2598217693469640e-06 9.1657734095352248e-06  1.5540498684777377e-07 -6.8760734691667998e-07 -3.6916488849629142e-05  1.9871583768181056e-08 -7.7464241830527553e-07 -3.4920805460764076e-05  1.1022949155804335e-06 1.7213388315327188e-06 -3.2901004692928292e-05  3.3984677847764598e-07 -3.5682869521390063e-07 1.2776644312849533e-05  2.0975813470875411e-06 8.5868808555314016e-07 3.8222772464895638e-05  5.7646378962884411e-06 -8.4378949080401994e-07 -1.9538840587825913e-05  1.6128869248012790e-07 3.5741435762689014e-07 2.0672116176769175e-05  -4.5845927718149069e-07 1.6812862584342181e-07 -3.4808448573778738e-05  -4.6014921712633128e-08 -5.9103136997386418e-07 -2.1191322443534808e-05  1.4969208288103381e-05 7.8674330044909167e-06 3.4926942589821399e-05  1.1514088181803942e-08 -4.0218952458204763e-07 1.5771408476994256e-05  -2.5198206540506766e-07 -6.5628414530968311e-08 -2.3328874139174816e-05  1.2294875999763223e-07 -1.3098721121581288e-07 2.2583399314198258e-05  9.4540277147597680e-07 1.9125394874218094e-06 3.2182371425957480e-05  1.4189964821492174e-06 -2.5915319376373281e-06 -4.2501707560190206e-05  2.1640703092540374e-06 1.3415745093615900e-05 -9.8848683013188962e-06  -1.1843958965423559e-07 2.1891817905987151e-07 -2.5848401832773701e-05  2.2147077505796555e-07 -1.2871477056938040e-07 -2.1458335558060966e-05  7.6846490607116334e-08 6.7968378332215598e-08 3.2165975662974709e-05  3.5389488631625695e-07 7.2152553043093486e-07 2.0445260837226003e-05  -4.3578311600261238e-07 -4.6702254014025612e-07 3.4440123548501761e-05  -7.2341418489117480e-06 -1.8894417572808067e-05 2.5204474227730428e-06  5.4799324856783148e-06 8.9321260891144982e-06 -2.2474183748968449e-05  6.4372421342781272e-06 5.9164649713331314e-06 -4.3359468229084970e-05  -3.3423974148200708e-07 -2.1954209941957238e-06 -3.7677708743941552e-05  4.3781184567634695e-08 -2.7457800982799391e-07 -3.4122053228371339e-05  9.7311208593670338e-09 7.3730897774528457e-07 -4.2774407006784952e-05  -4.6759115026759447e-08 5.4637179594056766e-07 -2.6954390824602607e-05  8.6102367004923717e-08 1.4052677505469271e-07 -2.2670272183911665e-05  1.9796530271034120e-07 3.4756946834772006e-07 2.7273650448315040e-05  3.6725546658479088e-06 8.4671897280938657e-06 3.2805503136423348e-05  -1.1269384326216226e-07 6.2827898780407185e-07 3.1092543172388611e-05  -1.4054556673406155e-07 4.8736702920361616e-07 4.2545934090667303e-05  4.0593975241971615e-07 -7.1112418733661304e-06 -3.5760604633720394e-05  -1.7814430459040079e-07 7.1753900555588737e-09 -3.3261827900406012e-05  -4.5407167670630740e-08 9.6801153240660927e-07 3.1226949040560015e-05  6.0053682740574181e-08 -3.4481047654376311e-08 -3.0894545825911452e-05  -3.6784310838762028e-08 -7.8789529520300395e-08 -3.6330033470759543e-05  1.5068751848261077e-06 -4.5128155723822117e-07 -2.4527917185155740e-05  1.6153721600668402e-05 5.0348382693071471e-06 -2.0689238182360836e-05  1.0406558515353186e-06 6.7058553850983129e-07 1.2485958303589836e-05  -3.0024582937493513e-07 6.2014413523504287e-07 3.5175954918292553e-05  1.2448460415210386e-07 -2.8085986645753838e-07 1.9734534943448158e-05  2.5035530570767812e-07 7.5388028412058512e-06 3.7401091330783360e-05  -9.1494933245619896e-08 -5.0015983099232289e-07 1.9062769840683922e-05  -3.1212016705668241e-06 -1.0535633671836906e-05 -3.6198299367615266e-05  -2.9789976006395314e-06 1.8287049057634021e-06 -4.2932704642063531e-05  -4.9298902576129859e-08 -4.6239643002732849e-07 3.6055952521145922e-05  -1.1319479161363110e-06 1.1712853042568614e-05 1.8640326461304764e-05  -1.6426327211280450e-08 7.5286287046139525e-08 -2.4514871719345087e-05  -1.6225042276319515e-05 -6.0027133294155718e-06 2.6679904888746006e-05  -4.2695295968330804e-06 -8.7648050562732927e-06 -3.8685079133052866e-05  -1.1420494777891737e-05 -1.5636754475024174e-05 2.4764058060500548e-06  8.1201612588044361e-06 9.2201223497084945e-06 3.5517894611055068e-05  3.7153087377448122e-06 -1.7242750078006605e-05 -1.2968062445012650e-05  6.3803944125337379e-06 -1.6030663642934281e-05 -3.2062572896891790e-05  -4.0950776843936289e-08 -2.3873282492393591e-07 2.6052012552483823e-05  -3.2180793051716867e-07 -2.2766854392421185e-07 3.8517832465798989e-05  -3.7999668974530177e-07 -8.4266831458112923e-07 3.4730412853294040e-05  -2.0784238675301272e-06 -1.2272569809920741e-05 8.5897292158725345e-06  -1.5073096493716374e-07 1.2730916611390754e-05 -1.8269194788758742e-05  -3.3680048218489088e-07 1.2780044390265742e-06 -3.9609112046435288e-05  -1.7595239625592518e-05 -6.2349002246891758e-06 -2.7298470182285259e-05  6.7410277662214818e-07 -5.3170624965263458e-07 -4.9096808574685877e-05  1.0525743646768660e-05 8.8463979651922992e-06 -3.0806099598523333e-06  -7.2867138864387207e-08 -1.7865711677949579e-07 -3.1682489441192015e-05  2.9854912866303171e-07 7.4788391528681143e-08 2.4762266461557620e-05  8.2932354361047052e-07 1.4919699069053567e-07 -2.2220780623868251e-05  1.5965385976254260e-07 -3.8435952203842427e-07 3.1818826886351734e-05  2.3950144301323731e-07 5.0993686551344637e-07 -2.9834189142665468e-05  -1.2857702904056543e-06 -1.5142113048584234e-05 -3.4170840949670990e-05  7.1803602611189874e-07 -1.5228020028523404e-06 4.4652550638086734e-05  -8.0997660359679940e-06 7.5141551722783380e-06 3.1113065310201602e-05  -1.1898359736540157e-07 3.9270674208595432e-07 -3.2886379317171656e-05  -2.2427242349936219e-06 2.3035706216257273e-06 -4.7746498409699275e-05  7.4542925070326387e-06 -1.0676866239769274e-06 2.7072168116665707e-05  5.3888406178054278e-06 1.4394963112258192e-05 -7.1853874965361636e-06  2.5977273485610744e-06 1.1528939751266471e-05 2.3226082077235658e-05  -1.1351864666042056e-05 -8.9291830748633970e-06 5.9006699354000456e-07  -2.0976366029645903e-07 6.2758108914658873e-07 -4.0760170797485932e-05  -3.0733161988431277e-08 1.1783690121870756e-07 2.4967152885429190e-05  -2.3557118640837917e-07 -4.5080389364429278e-07 2.2730410186209164e-05  1.6859306255971498e-06 -6.8412082323829987e-06 -2.7373797316645304e-05  -8.1936157143325085e-06 6.9360389125774985e-06 -3.7023467562302685e-05  7.1752929740805684e-07 1.4055877168049274e-05 1.3302353244190276e-05  -2.6865563639168710e-08 1.5777009410530018e-07 2.1201395717928195e-05  -4.6968511032907979e-08 6.2796713335842073e-08 2.7127737031925277e-05  6.0144300352594341e-07 -3.1720115596449470e-06 -4.5086204957821475e-05  1.1636686477538710e-05 1.7757679963672017e-05 1.2897089342910273e-05  -3.7726037876982998e-08 -1.8199619776614402e-08 -9.7672603259451113e-07  2.7398747183206670e-06 4.3670042629478522e-06 9.6912767645487171e-07  -5.8021111511927146e-06 -1.9275147284197834e-06 -5.1902790181249094e-06  5.6482015644349113e-07 -1.6404955604204686e-06 -1.8510830149179925e-05  -1.5938456646911708e-06 1.8694588106989798e-06 -1.8175437223633222e-05  8.3081271625016988e-08 -4.0347414788861077e-08 2.2201513397354173e-05  2.3864143231231324e-06 2.2620342396636457e-07 5.7362811312828564e-06  -3.8171778447237033e-07 -2.7495922745523697e-06 2.4084548174904966e-05  -6.4899388220813441e-07 4.6567838718268573e-07 2.0108348539350479e-05  1.8430898910161322e-07 1.0131184424824252e-08 -2.2521849026845258e-05  -5.6955122210798992e-07 -6.5184641056247821e-07 -2.8182986535772703e-05  2.0488771492641062e-07 5.3582030457584199e-07 1.4477405746999972e-05  -4.5049923962845605e-07 4.2775747309388851e-06 2.8925035999083758e-06  1.1596046676638830e-07 1.3814722341804852e-07 2.8739623800861972e-05  1.1459888651509064e-07 4.6641884362756057e-07 -2.1852880886530176e-05  7.4408605399828361e-08 -1.9797898351992780e-08 -2.9321295505422340e-05  9.8855125740878938e-07 -2.1945378461022748e-06 1.4031477781613911e-05  3.5938390660913405e-06 1.8754696564373201e-06 1.7045823284361237e-05  -1.5527821434134225e-06 2.6486945196207297e-07 -2.6901184322351116e-05  -3.2809043998358960e-08 1.9731530065397870e-07 -2.5847701643420907e-05  -1.0622635444330078e-06 -7.1383219197724004e-06 -2.4529840246851211e-05  -1.2198934956662611e-06 -1.7688097954277834e-06 3.2734625942180373e-05  -4.4326656665362308e-06 -8.3521069439908934e-06 1.5091001035260402e-06  1.6692746052872436e-06 -1.0436160306267910e-06 -3.0329734999676926e-05  -1.0526740998428450e-05 4.4703525774884422e-06 7.8457279155218094e-06  9.9015114474042260e-08 -1.5782507809268819e-07 2.9713656794397330e-05  5.6352913379458422e-06 2.9814830014881296e-06 -2.8138638324428963e-05  -3.7019710724450743e-06 -8.6918463057364228e-07 3.2473987572800554e-05  -5.3954438331592313e-06 9.3411681823478337e-06 1.5339324084492932e-05  2.0242859520763042e-06 -2.5313691112169890e-06 1.3926525264024391e-05  2.4856826146778231e-07 -3.0294461188957463e-07 2.8902601958931952e-05  1.3566463855399827e-06 6.6087092034206615e-06 2.7078275549094518e-05  1.8925955537500394e-06 8.5098072149612278e-06 -2.7978758665649169e-05  -1.3459718332854987e-06 5.0322829623835788e-06 -3.1144747839331929e-05  7.1508803674042804e-06 -1.0773209095236847e-05 -9.7980139212860244e-06  -3.3419522912698842e-07 2.2829870653854173e-06 3.3790843872424724e-05  1.2155225939988655e-06 -9.8310479372185101e-06 7.4608774730915235e-06  -2.3529403080896611e-07 -2.2535062224473892e-07 3.2057990711872506e-05  -6.6039101874383406e-06 -5.5366099868625049e-06 -3.9611110602684987e-05  -6.7759478751696906e-08 -9.6900471374448564e-07 -1.3068675426208255e-05  -6.0310724202794987e-07 -7.1208148859139259e-07 1.5149631266620264e-05  </DataArray> 
</PointData> 
</Piece>
</UnstructuredGrid>
</VTKFile>