<?xml version="1.0"?>
<VTKFile type="UnstructuredGrid"  version="0.1"  >
<UnstructuredGrid>
<Piece  NumberOfPoints="201" NumberOfCells="657">
<Points>
<DataArray  type="Float64"  NumberOfComponents="3"  format="ascii">-0.04271561671192947 -0.01837068114275377 1232.008085897089  -0.02154027524980703 -0.002539841159905196 -1232.048392217985  2324.417288038474 0.01127703931630774 -1172.312534672421  4420.030775671567 0.001987719328943701 -998.3828272310201  6081.381901931619 -0.001846858562889683 -726.568080025158  7147.024025332806 -0.005294714067538518 -382.3785394169129  7514.043154473476 -0.02459800177160052 0.009910571498101751  7147.034296230192 -0.03215632890093301 382.368713377388  6081.380007995586 -0.01279371176866792 726.5396754291148  4420.016718681167 -0.004059422957689583 998.3940683349457  2324.421299231417 0.02416594007644608 1172.263660716262  2944.3051054624 -2187.212929625292 -1072.444249958835  2925.309457888892 1699.016891503457 1098.830500995233  7152.420540059321 -1945.548240140412 -183.502275041838  5152.198017849944 -2123.899878303904 823.7680366283287  6506.635259384812 1968.087349321921 520.1558287400691  6479.646382426115 1968.025763670011 -529.1981022144058  3287.580122020601 1957.682088842542 -1058.427980031595  1133.046084563447 -1958.035987559382 1172.290936055859  5118.898722822696 -1957.104338923818 -841.0967126701654  3563.272305210669 -3840.054233576194 -869.0619071359322  5292.829166748364 -3762.796796417265 -599.2910393020841  3629.086937870824 -5378.738291867887 -575.6665191451998  5112.445832197926 -5046.996518677937 -283.7055762303972  3207.861907111363 -6402.52726579397 -240.9863460632003  4567.432251735979 -5745.645396818454 60.97288531761075  2399.090544254897 -6840.224825078254 109.9776171143972  3480.307270868734 -5943.216262099856 417.1190502746966  1253.722594863074 -6659.963693126875 443.4863758465607  2227.856770721151 -5433.769497078026 732.0508905533402  -86.57275537100128 -5836.792840175928 733.4430503529553  5337.215823251177 -4668.713084767824 352.0391730644139  5118.945185257967 1957.08183220803 841.0950936157889  5185.412319718119 3787.672834027347 619.8104529656617  6278.224844062927 3628.757245471278 280.7662757869216  833.6296671203088 -4338.252320774835 979.6536214418294  3052.59061977732 -3803.955954429151 924.0508276244473  3563.02724971222 3621.150754877759 895.8247123749118  3432.197665699323 5295.858903137134 628.2265784074364  7166.137049396816 -1898.147031860983 183.4818194080322  6318.139251503892 -3922.368967315695 21.25266534715428  6521.077475773442 -1969.837876496227 -515.030048663894  1133.039561519877 1958.048087989005 -1172.243564492521  5068.046262672952 1908.051651151059 -852.5819943351531  5145.745506431196 3767.32519760477 -632.2140464766795  1556.955215221122 -6461.482636484009 -499.4240143008358  -1089.297965017302 -6739.049119228386 419.8758572929978  1520.460094507035 -3939.362883859641 -1005.732541488263  6235.362875718863 3672.087955351793 -290.1539595424812  4662.910076549795 5304.900145082388 -349.2093327883116  3311.740322663956 5164.137676113714 -675.7526942215781  2614.006851248854 6429.919300735976 -376.4287102435299  1155.094201168617 6038.958590147486 -657.605496966753  338.0132432192367 6961.035261657324 -341.6038499858985  -1184.083272971558 6213.190532262548 -607.1126302774087  -1953.388560390511 6836.2797669313 -257.6778523877917  -3442.978778701547 5839.117162343886 -465.5916535013887  -375.7398060799135 7239.588535453838 22.83120808733488  -2400.674708458932 -5610.738075293657 676.4497848434237  -3315.134877456825 -6203.286186742496 335.2229756465511  -4041.922960092458 6067.185277908859 -125.9002301530493  -5339.48369468483 4746.241216925861 -319.4101251087376  -5687.162511172609 4735.345000520697 28.58855556907874  -6671.53545722098 3124.338886286334 -199.6957961660914  -6762.928308039145 2965.604931091266 186.2968669137791  -5928.037426227386 2961.901907151365 -568.1841282175716  -5469.648762809161 4382.35287331681 400.8735882067393  -7058.40858440288 1295.339101856128 -362.5671051800556  -6248.800609136653 2438.342276157221 547.0840575986585  -6010.046551442084 831.8073708414 -728.7567868943452  -6747.499152614566 -940.8462251443431 -520.5358713303867  -4649.579618708085 3676.187992199817 742.0542412814597  -1038.893846816274 -3006.435459051887 1109.244671638161  -4528.153223097622 -4797.89064809028 552.0402477280252  -5401.312366417001 -1274.843724775855 -831.409354552945  -5833.894038066955 -2991.490712334491 -589.6487169191585  -7220.234220562756 822.0909841324825 312.9262632646969  -2513.211746664037 4837.34687486001 -822.6892788025103  -5143.438351213455 1570.00435035453 860.3514492680069  1616.9286635864 4888.226883071196 872.9707084711962  -6956.477796396586 -2450.098602831381 -209.8064741154071  -4377.136101443793 509.3051734502376 -999.7586527525533  -3410.150443701179 2798.10465378911 991.6199555060645  -4205.306613243782 -3219.042810021194 -864.7861514964898  -4402.009927324742 -4791.549769709681 -580.517670574635  -3709.799433807338 5395.620772807634 556.8458383267564  -1893.790708660014 -7000.422862140296 79.6479370442464  -3591.936883605992 471.1726834350046 1080.668779742815  -5305.687661483728 -680.4989350942831 867.4049298017848  -2541.525499981786 -4806.423080691967 -825.5472417693804  -2549.152757196809 -6125.673529537708 -511.9623075835971  -2190.81271826236 -3044.586299561945 -1060.506361462413  3809.83501750388 6245.524752203645 -34.91855391003918  -5123.735242522461 -5145.370824175591 219.3896102838087  -6169.792186567896 -3475.196334353184 383.8278741265207  1345.94434341434 6291.677408043593 573.584998379982  -486.0228707808942 5675.44726470924 765.1715467408075  -168.4213815573137 4277.722384229568 996.3813589138553  -2037.5601700778 1807.79799688619 1146.354015758724  -3396.53010084979 -3925.00187270311 876.0304836344799  1772.806988990235 4779.012842015817 -882.2284089684213  -4211.859064129385 -5792.213983199024 -270.0855449649937  -556.8875461993563 3667.095761863638 -1060.45535229324  -1234.333714593366 1572.634907335842 -1186.091304756063  -836.2433496882304 6772.696290853274 419.7925065428668  -1589.273846571381 -1113.191303624414 1189.645998282434  -543.183161953 -5942.827186430685 -702.8138307237841  -3433.086850288343 -1788.435359868929 1054.68316131284  -5290.258095929318 -2878.06898003393 728.3036070381632  -6584.826589490858 -1383.108482857455 547.5888363518151  -7203.302349463906 -1795.230949549748 173.6963685082498  -7481.676883446379 -233.4788851011543 -107.5446967118348  -2888.191511695901 3115.469307361366 -1008.667082842686  -4379.259759120632 3445.215246895006 -814.9095020940614  -639.1367791512289 -6824.181125629065 -404.6615660758887  -255.7577859016333 5358.958543126002 -831.4057002623966  2996.524993610849 6373.897494817909 323.0125801775436  6477.543662054099 -1882.803581229365 538.8010535634911  375.7910155424886 -2054.90253435956 -1180.421472812472  1187.744336056668 -7071.417794496963 -190.5454498747912  -2289.405226715038 4633.244309402089 872.6614125280547  7182.985932934421 1824.100431737592 -187.4152601487161  4801.107547228228 5256.646333059784 318.2765739664728  5663.40647564708 4763.928757839643 -14.14550299194959  -5737.239630069072 -4308.893209459246 -312.8422954818579  -2489.600498635373 6817.194773628923 96.30816567138569  -4176.902142222913 5879.269774238847 226.3254856721779  -407.815121433652 -4435.114184030465 -974.4132043519542  -1752.860323981675 -809.7505285985046 -1190.606934821372  -3694.424248175545 -1299.291205989386 -1051.600085752433  1735.867519057714 7044.107395440027 -63.22203723292374  203.3604321566731 -7202.491132149171 137.4831047262371  4150.547303504173 -4581.879358661529 672.4965880601338  7195.648013581282 1847.443113172757 166.3377485767759  3289.403139385965 -1943.572250211381 1059.048832112516  -6355.363831380509 -3863.804679084073 30.56342286267896  -1345.808861470435 -4785.744018521768 901.2322371361203  3663.236973179538 3510.641766394691 -897.6263628006037  -6439.74775117947 578.0415490474858 629.9915776138946  1687.558086121277 -5400.628180330328 -776.7376366400197  1842.029642986856 3483.869278001401 1039.154084117541  1070.440197713907 7012.774102948112 259.9630545349038  -4674.478614319052 4545.758312057127 -580.3703154289817  6284.521378753566 -3494.604926694049 -323.3885303436487  -115.1292151957817 1887.376820366387 1189.774829757183  5693.06523104785 -3401.678020859666 561.5670717020815  -7295.502815367137 1727.847431804225 -28.16308201868961  -3883.897703590808 -6206.038246504048 11.91206822708627  -2371.952900200758 -6773.817922854766 -205.039016060001  6741.029455916226 3202.574478381023 -8.624013791029741  -1678.538374959098 3574.250997614471 1037.759047704771  2088.769383321099 3245.865077525968 -1048.81613568182  -2535.849744523105 533.0920220811569 -1157.046873252974  -2747.56727689372 6343.642344757833 392.9658609563222  6391.594939751545 -3250.282590831793 340.2896461538573  -511.9054419914718 -7196.519920988002 -124.2292468792739  -4821.817626608447 1885.702210924778 -891.4887964296381  -3296.271308956867 1602.926391303604 -1074.733522612512  -2101.85946021584 5833.939071413844 647.9099157304606  -5283.599375586396 -5139.049366687899 -69.21901606761597  0.002006044107613666 0.008249117282414242 -0.004094052465273613  -2398.294199636982 -2839.061978113441 34.14893887197661  3626.511241137486 1107.182362693197 -5.640002217442659  -1444.817697399699 2984.256594375954 271.6739633975788  2703.252700426016 -2115.50029578366 247.1608469365226  -1761.521200064978 309.7095694320674 -548.6992113350693  -3729.92451438926 563.4912284559235 0.4506491947320843  712.6479323608282 3375.535933021963 -235.9264698583615  2519.491615134466 -1663.50865823905 -369.3588713966755  -1959.99643590316 -316.1073464605542 532.2463987854989  1879.258607630759 2511.723623924611 429.3820179558453  -693.9455057507074 -2866.42856009013 -466.3785200524561  620.5926601237995 -4139.180747043068 2.277179963857677  1496.456267511903 109
[...]
<PointData  Scalars="Pressure"> 
<DataArray  type="Float64"  Name="Pressure"  format="ascii">-2.4496163902870832e-01  -2.4589421971312794e-01  -2.2917680804985163e-01  -1.7401232496738389e-01  -9.7806492217924215e-02  -5.0929334011909071e-02  -3.2870536668127032e-02  -4.9016529006566459e-02  -1.0009237134383049e-01  -1.7484248757877080e-01  -2.3215506381769277e-01  -2.0198088313037474e-01  -2.0097858994977097e-01  -3.4257128966352905e-02  -1.2517385503114034e-01  -6.7037956948401978e-02  -6.9761481237236730e-02  -1.9256717829920325e-01  -2.3466948799343723e-01  -1.3061624653404116e-01  -1.3771996721429036e-01  -7.7868698010332485e-02  -7.7531761571330446e-02  -4.1846108338665450e-02  -4.3958456855085794e-02  -3.1387384546350754e-02  -3.7204550709801353e-02  -5.8914214604802125e-02  -6.5322954512943288e-02  -1.0638367018781253e-01  -1.0454219057679508e-01  -5.0523882938118714e-02  -1.2700725185308687e-01  -8.7026100806576634e-02  -4.6261275848831621e-02  -1.7029049317351791e-01  -1.5655231630675095e-01  -1.3950647409746772e-01  -8.5735872245731398e-02  -3.0897856891728193e-02  -3.1395595600435394e-02  -6.8714714559480708e-02  -2.3109903874161350e-01  -1.3050594604174906e-01  -8.4917686895729746e-02  -7.2115124412480566e-02  -6.1003264100233316e-02  -1.7609444049382161e-01  -4.2412027421675165e-02  -4.8379044010982676e-02  -9.3804592075547227e-02  -5.6110981302704449e-02  -9.0292832681461571e-02  -5.2866461309235391e-02  -8.4774333453799644e-02  -4.3076980428549093e-02  -6.2213382196391255e-02  -3.7399948628667114e-02  -9.7617209613216932e-02  -5.0982673130920871e-02  -3.6911399314576855e-02  -4.5743292572113153e-02  -3.2213623681736796e-02  -3.5750871832081074e-02  -3.8709774350304663e-02  -7.3693031626128822e-02  -5.0216767104051006e-02  -4.9241190552973726e-02  -7.2607611814129419e-02  -9.8590685845024811e-02  -6.8620491200989397e-02  -1.0138983091222442e-01  -2.0562536329442702e-01  -7.2574791689574952e-02  -1.2581514699989740e-01  -7.7856546641095828e-02  -4.0499836147723477e-02  -1.2987848265647972e-01  -1.3384300085982442e-01  -1.4071770248777829e-01  -3.1804229306249911e-02  -1.7153327374010985e-01  -1.7025378724168627e-01  -1.3703347733418211e-01  -8.1093127681588328e-02  -7.9055386028280092e-02  -3.5715200499937982e-02  -1.9731690786618239e-01  -1.3204496920590725e-01  -1.2969797694972757e-01  -6.6748570215425587e-02  -1.9673317712901212e-01  -3.6862785082359122e-02  -4.5287687821052178e-02  -4.8631010908348052e-02  -8.1302176018558797e-02  -1.1622755357993382e-01  -1.7422600799257543e-01  -2.2006526645422331e-01  -1.4025559676146682e-01  -1.4230275742793605e-01  -4.8339935582459484e-02  -2.0149178599965134e-01  -2.2628433784946766e-01  -5.9978229072696863e-02  -2.3841276547449286e-01  -1.0070934444166729e-01  -1.8946317043409919e-01  -1.1154401910642962e-01  -6.4515951805674140e-02  -3.5740400610012588e-02  -2.8608489806288176e-02  -1.7450520202206793e-01  -1.1977371665825165e-01  -5.9786813119230293e-02  -1.3102916053620559e-01  -4.9612611764559000e-02  -7.1855549118196943e-02  -2.3933262711271916e-01  -4.0303728763344863e-02  -1.3991624551260876e-01  -3.1846523836901570e-02  -4.4563907794859428e-02  -3.0093290417777609e-02  -4.4517058030353759e-02  -3.7282936396933440e-02  -4.2239072736229587e-02  -1.7336793524206134e-01  -2.3062887463814888e-01  -1.9544007940934266e-01  -3.7816868414678260e-02  -3.9860589221673119e-02  -8.8897238394767875e-02  -3.1667138443343811e-02  -1.8993191590767086e-01  -2.8483334002059362e-02  -1.4758822585251474e-01  -1.4756764277484727e-01  -8.1434112372002307e-02  -1.1577979351012889e-01  -1.9192704146390377e-01  -4.8431550315656643e-02  -7.6473069805519184e-02  -4.5680764698424081e-02  -2.4431215313968485e-01  -7.7827151812430009e-02  -2.8894625271702952e-02  -3.5061422361308298e-02  -4.1214449228117601e-02  -3.4890526375829123e-02  -1.8663659744836836e-01  -1.8490742481290071e-01  -2.1738276740750920e-01  -5.3307592511025806e-02  -4.6995203003680409e-02  -3.9665267192071335e-02  -1.4207804214695044e-01  -1.9284063710835062e-01  -8.4695116711297036e-02  -4.3237958334731479e-02  3.4485978500078958e-02  1.2149031534873189e-02  1.5066170977787003e-02  1.3978704500377838e-03  5.7056886581750444e-03  -2.3644259958952734e-02  2.2188858049898591e-02  1.0417550928276783e-02  -7.1778569697119798e-03  -1.9228120583970741e-02  -1.3731901846349046e-02  -2.0324894046982237e-02  9.7772926895977920e-03  -3.8087464587650270e-02  -2.4114323416195117e-02  -4.5966967408143981e-02  -1.9637066299994527e-04  -8.3824985678235802e-03  -1.7929706494842285e-02  -6.1230334203766820e-02  3.4879186474408293e-03  -1.5282217273757916e-02  3.3497389369517715e-03  -1.8420107022840145e-02  8.3734639517271340e-03  -5.5039749129658845e-02  -5.3190030239239107e-03  -1.9541826316235477e-02  1.4882827782414540e-03  -1.7370277507778399e-02  -7.4483461611128454e-02  -5.1014989389064876e-03  -4.3151402138130448e-03  -1.9424568776532050e-02  -9.0575215109486797e-04  -2.1389884738883855e-02  -2.9779446726411812e-03  -6.8690980758730383e-02  -1.3027829578992326e-02  2.9762365694732524e-02  2.6366496759214538e-02  </DataArray> 
</PointData> 
</Piece>
</UnstructuredGrid>
</VTKFile>