<?xml version="1.0"?>
<VTKFile type="UnstructuredGrid"  version="0.1"  >
<UnstructuredGrid>
<Piece  NumberOfPoints="201" NumberOfCells="657">
<Points>
<DataArray  type="Float64"  NumberOfComponents="3"  format="ascii">-0.2212091801408992 0.04670509574872316 934.1221783892263  -0.0609466115068381 -0.03269193766741028 -934.2279906590978  1831.481635350011 0.05632384464423641 -890.2605713815339  3476.184830838245 0.03616787191718045 -761.0654267515764  4771.336020135677 -0.08144754363574561 -556.7632825245312  5597.088014798803 -0.06521189543373768 -293.9369152977954  5880.636701077633 -0.01309486522088467 0.04328484106800404  5597.159622082818 -0.02381040315794279 293.9533171528598  4771.338810944536 -0.05549023081181079 556.727933707896  3476.141243533973 0.07504446764448167 761.1180265390583  1831.552194360241 0.03692820770319051 890.2249630491542  2316.518089529311 -1650.671380458576 -815.4059926316262  2302.748540582514 1282.068789462585 835.2652771325415  5597.040940914281 -1477.003217303642 -141.073144813457  4044.101693541475 -1606.983475646091 629.4260729545689  5097.196608509797 1492.349795292516 399.1246582079198  5076.314893892987 1492.39578172772 -405.9789396007557  2586.327608598762 1477.872734272744 -805.1886852127346  892.538153311147 -1475.893881800848 889.2839552581933  4018.645415665506 -1480.67351782759 -642.538784034158  2795.905804190371 -2901.295413040054 -661.8372296402204  4145.385556569862 -2849.039085448868 -458.2003375271481  2838.725698726929 -4067.386432871601 -438.6819842466344  3995.291168843806 -3822.679043890445 -216.8470171962133  2503.949164913873 -4842.672651170984 -183.5846513779548  3566.186012589813 -4350.380278678304 46.5903042818466  1871.262065281896 -5171.997476763953 83.70893258284036  2719.033490095531 -4495.143374441392 317.8809182278059  978.995746290586 -5032.062479039836 337.1090081318298  1744.344446958904 -4104.198405571683 556.6003610320695  -67.71729706036623 -4406.656481960835 557.0740627301603  4173.173595481804 -3536.581657667027 269.2503458922806  4018.922224751329 1480.763890695841 642.5715874980394  4061.495141485954 2867.502685856221 473.8000126209241  4910.623858116694 2751.846063085717 215.2943499159917  654.4698211795763 -3272.739964899853 743.6522393468696  2396.773805855223 -2872.462742841507 702.9213816422537  2796.608900399177 2735.74488874512 682.1289373976659  2685.588821758032 4003.663081824638 478.4921405848874  5607.933594057285 -1441.007592937267 141.0829167938431  4939.758192145956 -2974.723714983212 16.3489401221394  5108.709679498315 -1493.76489782118 -395.1234947718817  892.4387255746116 1475.987287798426 -889.2678754046568  3979.306074578561 1443.356619891911 -651.2165966097123  4030.631163081634 2851.999096354366 -483.2277013440496  1216.245410663901 -4881.963717531997 -379.6576052928707  -850.8048074576552 -5091.769449792825 319.1438209403761  1194.628829348468 -2971.9717400336 -763.582134412977  4877.189640491097 2784.431500892132 -222.4260818466652  3643.964834130019 4016.243402747719 -266.7066849957737  2592.543191939484 3903.334679903547 -514.5363805477966  2041.197876733575 4861.100546673915 -286.5073415738767  903.5307798289496 4560.76397733477 -499.6681114266585  263.5443162414575 5259.787243142814 -259.6364928271284  -925.8711436895995 4692.873263958409 -461.2984247133797  -1524.364318571028 5167.735282975023 -196.0079863883513  -2690.992907949166 4415.931770354041 -354.7692139945715  -293.2895461934535 5471.39095471005 17.3855434107796  -1878.779180902258 -4238.94531432332 514.5165499251088  -2588.796488356687 -4691.925010078246 255.4210308702964  -3155.607617450142 4591.900244613681 -96.04262370865851  -4174.157829565607 3595.473532672649 -244.3669536584972  -4443.759795081737 3589.128277511184 21.86817242299096  -5218.809983179084 2370.584709343841 -153.319915324892  -5290.408660766179 2250.416751692064 142.9712578020194  -4643.339337334734 2244.336688861452 -435.2117753981685  -4278.021236565987 3319.944625435745 306.7762319352673  -5526.429892904668 983.0532170716137 -278.6552468382349  -4895.060346211064 1848.434473700818 419.3492758494579  -4715.086381789009 630.0286488269858 -558.3149039453139  -5286.659727964451 -713.5545769226738 -399.7189163928562  -3645.007394647751 2780.929039218504 566.3966106432814  -817.6220621899163 -2266.9142789001 841.5086336995187  -3543.340639148098 -3630.655300943741 421.3545397187469  -4240.684539315804 -964.8717660421937 -635.7543333866541  -4570.061680226305 -2266.450917107129 -451.5536417151334  -5652.655099374764 623.9897446152976 240.621986059532  -1969.999167084416 3653.354716242848 -625.6078624262677  -4039.013120543446 1187.833104764081 657.4351933926773  1268.058701101456 3689.695862389523 663.1615845696429  -5442.633169985707 -1859.6304640295 -161.2792360754306  -3442.122436008684 384.9413162493166 -762.1848486298055  -2680.156633056931 2112.812580055992 754.5902982998116  -3300.395217677597 -2433.326558169652 -659.3611217050751  -3445.104547341248 -3625.362013328684 -443.0289826377586  -2901.578908039595 4080.465895855835 424.4295947098665  -1477.072382861014 -5292.286737233861 60.59148711361151  -2827.248049795116 355.8836154827449 822.3038974918935  -4167.195549665853 -514.9860315831203 662.9622001372866  -1992.360129257298 -3630.056199750563 -627.8507421948917  -1992.111106496829 -4630.042224371726 -389.625594056633  -1723.075513969687 -2296.842788342849 -805.5612531015942  2973.793486958593 4726.098788582239 -26.59545810042682  -4003.707031024731 -3897.315898227211 167.6926488455962  -4827.686313192088 -2634.736335486956 294.256161546803  1051.986662990395 4752.780726178225 435.9775359100627  -380.8807581962756 4284.529799554657 581.0471359030344  -132.3112881524192 3226.807252112811 756.1026395283322  -1604.654331973112 1363.311666188575 870.461051285693  -2665.125954699993 -2965.214893017383 666.9638851569428  1390.387612811065 3607.371859244569 -670.2588894873795  -3289.783597326492 -4383.815364378745 -206.132585117733  -437.7285549668937 2765.415755064573 -804.5428192708307  -972.6001416671896 1185.505624526621 -899.7992796483057  -653.1135660548657 5116.987420676532 319.0653892355638  -1252.358403364276 -839.0935122661027 902.6638543299216  -424.9797713496919 -4487.111988885379 -533.8324179262597  -2700.590878340363 -1350.14398134249 802.5494732808785  -4148.319948619761 -2178.438104490676 556.6898601291332  -5159.547951143074 -1048.86455076793 420.3543706165927  -5636.39886886665 -1362.987753814263 133.5723113021594  -5855.186149814891 -177.3043765848899 -82.81339632304582  -2270.251346062919 2351.755712411524 -767.0585556537278  -3435.440695292973 2605.063505272596 -621.5805359122184  -499.2836466630895 -5155.913707859357 -307.5555033382082  -200.4866655892433 4044.775596738751 -631.2468511852552  2339.579668878622 4820.071398682107 245.9939051501797  5075.138114478722 -1427.761827769577 413.285863857523  295.7325944091053 -1548.764020559025 -895.1145905986551  926.414978641197 -5344.466717446739 -144.8628111341613  -1795.492185376522 3498.143407911113 663.3547913236271  5620.941074210648 1384.871002370716 -144.0962230704635  3751.741205669476 3980.324556067035 243.1762452003271  4425.138962571853 3610.77208273736 -10.83052814783792  -4486.240478660924 -3265.412966939042 -239.4902965174796  -1942.300534330021 5154.959085972948 73.33454760758757  -3261.739753206592 4449.879794701215 172.7153473034745  -320.2189097439797 -3345.623358571962 -739.4899756785313  -1381.329437996244 -610.4457143291276 -903.6061484469545  -2906.667316461124 -981.1020236802324 -800.5691001563006  1353.643028214873 5324.846072761931 -48.10346024038721  158.2766201401408 -5443.168319600799 104.5083786325788  3250.316880049464 -3465.220968092893 512.9174493735386  5630.603220155565 1402.577889555591 127.8969871148562  2587.566670132284 -1467.229730989234 805.682892637909  -4968.789486143401 -2930.575810216428 23.45012478110829  -1055.776224637617 -3611.741455259747 684.3731820929727  2875.4829577331 2652.347577132718 -683.538481289822  -5048.792897099886 438.1579194218897 483.2688020794176  1321.727210095666 -4077.79650712244 -590.1968778373069  1447.948157563781 2628.207225114969 789.0640750345881  834.8660641368861 5299.813437121868 197.6652594914307  -3658.961724009211 3440.149696484358 -443.1970375172559  4916.834788084169 -2649.849964854277 -247.8893604158616  -90.79270394170253 1422.537742831161 902.1548239225747  4458.617359272966 -2576.731893261633 429.8327321369875  -5708.152042852892 1312.001611801514 -21.68420881750149  -3031.455136469192 -4696.538010587742 9.049500331802848  -1850.618211012992 -5121.63047582225 -156.0776025271537  5271.985545906924 2430.289028960972 -6.631647256567607  -1319.391732565745 2696.427080713767 787.9727934249001  1642.37170830586 2448.870174494261 -796.5971611947003  -1997.655413853705 402.0467604909305 -879.025835314368  -2145.973747373456 4796.219167172584 299.1996464777914  5001.36223517183 -2464.793810672874 260.9872515390904  -399.6621435471658 -5438.719945112315 -94.43670647018767  -3787.328536595004 1425.975316368 -680.4678519072916  -2593.627838483198 1209.974138542233 -817.6076383378241  -1644.383660963815 4407.40829700905 492.7152459303139  -4127.740821250391 -3893.377371735713 -52.9455305699566  0.07016787000398328 -0.009842809963840612 -0.0133455228848368  -1887.036883181804 -2141.891531783382 25.87828283254417  2854.679845565543 835.834912449058 -4.263548518787184  -1137.209307149129 2250.511985218435 206.1992065068  2128.11741580978 -1596.05477558 187.8266974859912  -1389.079823324932 233.501611362745 -416.4236849029592  -2936.405800336849 425.5298731548342 0.3090951133347031  560.8804238479072 2545.151344600744 -178.9593183325414  1984.547608353842 -1254.790940704217 -280.5150936906314  -1545.110083269443 -238.3212775397853 403.9981757800786  1479.692646211058 1894.269057088402 325.9506766238845  -546.2794534699227 -2161.053714062226 -353.7725752157176  487.6608568087243 -3121.872394547403 1.715024249796709  1179.575548899235 828.86187439
[...]
<PointData  Vectors="Self-Gravity"> 
<DataArray  type="Float64"  Name="Self-Gravity"  NumberOfComponents="3" format="ascii">-5.4450817616572586e-06 -1.7226708328665764e-06 -3.0534849356279485e-04  -3.5443539091160095e-06 -7.4590533929526173e-07 3.0404999958569989e-04  -1.2586138854975489e-05 8.7251564194802193e-07 2.8540089063618969e-04  -2.7977386743478659e-05 2.3553184402417370e-06 2.5812792483012506e-04  -3.1354724097037110e-05 4.5799646946270850e-08 1.3704045466406587e-04  -4.2173668375145070e-05 3.4838192148602238e-06 9.0107160158572409e-05  -4.8870120926611326e-05 -1.2936883270469507e-06 1.8511089057794640e-05  -4.7631595564878174e-05 -2.9816902039908091e-06 -7.9117826415265683e-05  -3.2081629157513258e-05 6.1621396551856582e-07 -1.4869866403245091e-04  -2.8446521186679960e-05 9.6322591324453357e-07 -2.5243168142288590e-04  -1.4604258630959706e-05 4.5642253741062690e-06 -2.7526945056997404e-04  -1.3935540446605516e-05 1.3277463395625168e-05 2.0270533314970961e-04  -1.8131593557257086e-05 -1.2978157043955212e-05 -2.6906357756966841e-04  -5.2513968232538643e-05 1.6689881312001471e-05 3.9324457148192095e-05  -2.9954323858766114e-05 1.4982602744312821e-05 -2.1414356531246592e-04  -3.5289153289235045e-05 -1.2778112788079807e-05 -1.2780067310072158e-04  -3.6514367425814745e-05 -1.4016750025677003e-05 1.3657755857537010e-04  -1.7513196410958464e-05 -1.2199754483795621e-05 2.4376236329035693e-04  -6.0930231952354281e-06 1.1569492716960852e-05 -2.3552403040610464e-04  -3.2787038982289784e-05 1.7368201738715255e-05 2.1907056539794992e-04  -2.2207944942524818e-05 2.8559499384465335e-05 2.1450248410735925e-04  -3.5927307895884261e-05 3.2741294188726843e-05 1.5018144313238841e-04  -2.2095411702662269e-05 3.9233824907979878e-05 1.1911158642496483e-04  -3.4662452540758211e-05 4.0097470562733960e-05 5.6665639747895678e-05  -1.7882221453779382e-05 4.2924686551452480e-05 5.6347974902958032e-05  -3.1831522034315733e-05 4.8127823782493482e-05 -3.0974550961972523e-05  -1.8087687149370764e-05 5.0936507558363009e-05 -3.1945313113200860e-05  -1.4600768479065819e-05 3.1426178513801526e-05 -7.4306415800412970e-05  -6.4765046711118103e-06 4.5375265442272544e-05 -1.0755513671062277e-04  -1.2095696996554404e-05 3.5044305303808336e-05 -1.4405333422445546e-04  1.4342554720294480e-06 4.3750424830886188e-05 -1.7105228520859544e-04  -3.4253621574749488e-05 3.9126934184466476e-05 -9.0991330311313657e-05  -3.7807869094723406e-05 -1.7745252164732499e-05 -2.3010001884215373e-04  -3.2232504870283877e-05 -2.9673175862940538e-05 -1.4141005853597925e-04  -3.4476745863032469e-05 -2.1663496649266918e-05 -7.8836044135166932e-05  -3.8672073370900589e-06 3.0879254921990791e-05 -2.5200837140459503e-04  -1.8906904917445794e-05 2.8602774124719220e-05 -2.4184051020102767e-04  -2.7160208459808410e-05 -3.0406692052820961e-05 -2.2929794480955286e-04  -2.5029832271299482e-05 -4.0694464829148893e-05 -1.4003695438947857e-04  -5.6437131294189329e-05 1.3300893187379699e-05 -5.5118742019755613e-05  -4.5044451277675647e-05 3.2863503662917227e-05 -1.1861009364251001e-05  -4.2579013486998783e-05 1.3309023728644679e-05 1.4329754057539049e-04  -4.8778801120482497e-06 -1.6587464683768148e-05 3.0701603557596114e-04  -3.4328024180905576e-05 -1.4807671530686029e-05 2.2387712774828915e-04  -3.2207730093990647e-05 -2.7947186188338081e-05 1.4625670676772070e-04  -9.3702365850605346e-06 3.6408735752221668e-05 1.0892144539839751e-04  5.2294032993452579e-06 5.5539800101496475e-05 -1.2065193092544159e-04  -9.3084078654302806e-06 2.6536893048169718e-05 2.2960505137032720e-04  -4.0997775115337197e-05 -2.6496775136566406e-05 8.2073682114816357e-05  -3.3411256173446052e-05 -3.8762757232213347e-05 8.5199901399491434e-05  -2.1173539727953535e-05 -4.0485660727367170e-05 1.6131209696221941e-04  -2.1833051224303461e-05 -4.7704963585682080e-05 9.4695736589525974e-05  -6.4498168979305337e-06 -4.8090641777125213e-05 1.8330590293928230e-04  -2.2641454229642130e-06 -5.0825837884281253e-05 9.2275656351148189e-05  8.6310404307329541e-06 -4.8101221204853689e-05 1.4236098931160734e-04  1.2227519653643111e-05 -4.9978496370677039e-05 5.1571109233628549e-05  1.9966120570382490e-05 -4.4852115220700009e-05 1.1757103008578887e-04  2.6165570946245420e-06 -4.9305781593669861e-05 -1.2753283730655789e-05  1.5865665968805244e-05 4.1739461490111799e-05 -1.5743239332706042e-04  1.4503133078613110e-05 3.7075206156463855e-05 -6.8145280692267246e-05  2.7057670885433716e-05 -4.6496094963502661e-05 3.0760622950306855e-05  3.6299262422125757e-05 -3.6338834757878953e-05 8.2784490983449154e-05  3.0047430746740318e-05 -2.8786868719549586e-05 -1.6968918829057829e-05  4.7316812623673720e-05 -2.8114118167783124e-05 4.7415042728375064e-05  4.2574739675934302e-05 -2.1548829383672913e-05 -5.3193732108123877e-05  3.0112140780591458e-05 -1.4768912253776769e-05 1.1319231054262368e-04  3.8306123118559688e-05 -2.9501669139640321e-05 -1.0153501464368623e-04  4.1371060047574668e-05 -7.0672158175763288e-06 8.6669459571315607e-05  3.0570089023546605e-05 -1.3000809613963079e-05 -1.0985847240695308e-04  3.9936211951123365e-05 -3.2163614243400643e-06 1.6134985588373582e-04  4.3411011017763580e-05 5.8341187729779280e-06 1.1486311463449186e-04  3.5111347644575633e-05 -3.3324948103361311e-05 -2.0258924694154147e-04  9.2797200055978459e-06 2.3169975501410906e-05 -2.7066974572714932e-04  2.7982112337917764e-05 3.7384258034344563e-05 -1.3708450634498985e-04  4.0508744421726491e-05 1.1685846527640055e-05 2.2514656054641890e-04  3.7247856224974661e-05 2.0710929017048681e-05 1.5881124284875014e-04  5.1948935941745897e-05 -2.8045836256018944e-06 -7.7860549245669511e-05  1.4261206545875722e-05 -2.9287127772742527e-05 1.6165460478843912e-04  3.1856904949913367e-05 -1.3013761063871952e-05 -1.8099469693740947e-04  -1.0848607161191236e-05 -3.4103536009297794e-05 -2.0855500610569464e-04  4.9485809782914279e-05 1.9751347627125085e-05 4.6413588890980499e-05  3.0445856455449483e-05 -1.9622675799414641e-06 2.5266815408161948e-04  2.2774935623089268e-05 -1.8047005523978578e-05 -2.4447202765961372e-04  1.8178091378129443e-05 1.7270991324017346e-05 1.7184570258879336e-04  2.5133744511542909e-05 3.1803865841850949e-05 1.5630520260701998e-04  2.8631335003475411e-05 -4.1705150066924539e-05 -1.3971917311447730e-04  1.3055875654822257e-05 4.6730316175069417e-05 -2.4957133541856489e-05  2.5586197779925113e-05 -3.9927000400464310e-06 -2.7695230011097824e-04  3.6772365661888362e-05 4.1277195885802716e-06 -2.1905796365714574e-04  1.3977611785179447e-05 3.4910273170667818e-05 1.9503930791904908e-04  1.6599242789839690e-05 4.4299827720612256e-05 1.2249309970257876e-04  1.2011962777292324e-05 2.2021291310456655e-05 2.7624054418597175e-04  -2.4989058307242021e-05 -4.2832093788829289e-05 -1.1605564281111203e-05  3.2862505910872261e-05 3.6172739442237725e-05 -6.7915220604469699e-05  3.5221933769001317e-05 2.0001301737781920e-05 -9.0455665477378810e-05  -1.0266235671309648e-05 -4.5767438408509180e-05 -1.5146766936260746e-04  1.5768016205312297e-06 -4.3070827766451533e-05 -1.9647399280154355e-04  5.0957280565126340e-07 -2.3737457690282971e-05 -2.1364865366756806e-04  1.2497622316355568e-05 -1.3036894357811847e-05 -2.7281432383049835e-04  2.1619277311700066e-05 2.6562254354951541e-05 -2.1343400466263145e-04  -1.2178990405047029e-05 -3.4558251841663060e-05 2.2922660093165545e-04  2.8020131460023507e-05 3.9798190313754299e-05 8.5196561668714280e-05  4.6411705709115941e-06 -2.4925465273871232e-05 2.2920202882575951e-04  8.7579888499241218e-06 -1.7134621032204062e-05 3.1359346933416602e-04  5.8723229280057740e-06 -5.3085253284671209e-05 -1.0310013588306803e-04  8.9658659018682705e-06 3.1478691022316219e-06 -3.1009210969976266e-04  4.0695335125143889e-06 4.5307463711284498e-05 1.8254890200828178e-04  2.1097226600047453e-05 9.5863022348094157e-06 -2.3420856953659512e-04  3.5435842212707495e-05 1.8076260166028059e-05 -2.0316550937234627e-04  3.7233893564618919e-05 9.3014142592748628e-06 -1.1396729208712122e-04  3.4731760151740466e-05 1.1730976334472819e-05 -4.4759150570221997e-05  4.9344000872479098e-05 3.7196408630765070e-06 3.5205381949842088e-05  1.8200114262484604e-05 -2.1486128115141939e-05 2.5027751278779148e-04  2.9039819273060347e-05 -3.1035689841524836e-05 1.9973076862305755e-04  1.9349701825673759e-06 5.2049258231498111e-05 1.2270717164927680e-04  3.2044451997770104e-06 -3.0351286164183212e-05 1.6867146098059141e-04  -2.0494736470874130e-05 -4.9705510000845509e-05 -7.5390802632213617e-05  -4.1937757105473213e-05 1.2730450497262868e-05 -1.1072348145372887e-04  -1.7630267147334092e-07 1.3565761327171709e-05 2.7053435130465546e-04  -6.5706672214682441e-06 5.3415733532697009e-05 5.4796330553994829e-05  1.6527122356260407e-05 -3.1095811301304756e-05 -2.1968945396445803e-04  -5.2247389390231989e-05 -1.3835217018746935e-05 5.7789740356551441e-05  -3.5243612005441003e-05 -4.1486378994187164e-05 -8.2479759690527385e-05  -3.7139988089953721e-05 -3.7967701302830049e-05 -2.5989848930997762e-05  4.0342207541276544e-05 3.1943070731837856e-05 7.4455696469373796e-05  2.0777447841025536e-05 -5.6784018997466669e-05 -2.0271808220934117e-05  2.7514855160893221e-05 -3.7865336038305056e-05 -5.0260023578211991e-05  4.1304936450316411e-06 3.2511697427161549e-05 2.4142416702331492e-04  9.5020066474538020e-06 7.4308117688975911e-06 3.1610466564865658e-04  1.8069328724951837e-05 1.0655011938751898e-05 2.1418602742136707e-04  -1.2191668993479524e-05 -5.5550829464001683e-05 1.8993967533601688e-05  -5.1126336325748736e-06 5.1514175948513837e-05 -3.9871470661691707e-05  -2.8927346641324165e-05 3.3391179517583530e-05 -1.6723460970297888e-04  -5.2301490567311870e-05 -1.5530740936342830e-05 -4.0060157102126060e-05  -1.9043461167736391e-05 1.2351242663411659e-05 -2.4496615472758822e-04  4.5157306187762165e-05 2.9582567267618467e-05 -5.8661829188062474e-06  5.5595770976954711e-06 2.7379264407790899e-05 -1.8987074510575015e-04  -2.3702356916347539e-05 -2.6696785865358875e-05 2.2538389928496218e-04  4.5258560890953989e-05 -2.7629449624833760e-06 -1.6494439587312187e-04  -1.1794756917444388e-05 3.9308207433801578e-05 1.8661878658363036e-04  -1.0201070004186617e-05 -2.2585068143896340e-05 -2.5420513042251369e-04  -6.6658101046407745e-06 -4.8400910730753958e-05 -6.5094959529109702e-05  3.1788426575724045e-05 -3.6511397978918263e-05 1.7497021117065953e-04  -4.7719319009784350e-05 3.1424570859324664e-05 6.5585292773098642e-05  -2.7519341654828533e-06 -1.4416373937129896e-05 -2.8486011370922488e-04  -3.7286445387305191e-05 2.3276865112219273e-05 -1.5267556419747114e-04  4.8377330476978995e-05 -1.3352111601878367e-05 1.1753709823021061e-05  2.4458500249632718e-05 4.6777820268983321e-05 -4.6069011391163560e-06  1.1493347297313265e-05 3.4270181050482538e-05 4.8923106205033712e-05  -4.2722549528123257e-05 -2.4828142461884812e-05 -1.5615892249784973e-05  9.6789938662702912e-06 -1.7497256565513408e-05 -2.5118643076938655e-04  -1.0080442104108285e-05 -2.6762279766618159e-05 2.6720352234548515e-04  2.2730734744586039e-05 1.2225366294793820e-06 2.9932517178709353e-04  2.0161993606045323e-05 -4.7539318131954279e-05 -8.2724654419363619e-05  -4.9677986816678616e-05 2.8668003372890553e-05 -8.8384709939879223e-05  4.4945709922520617e-06 4.8839395829714618e-05 9.8487662799455952e-06  3.6478479616354836e-05 -1.6075429152298372e-05 2.6329582122013755e-04  2.0983529266579147e-05 -1.0058293577999805e-05 2.8160043847242353e-04  1.6516018579042041e-05 -4.6728012548506075e-05 -1.5741415231377803e-04  3.7936375794866678e-05 4.2323115917912823e-05 8.2154907868083055e-06  1.2938051662510196e-06 6.2820130545666628e-06 -1.0282309117275382e-05  2.1337363069189455e-05 2.5024240848388166e-05 -1.9998704373652464e-05  -3.5499032350471389e-05 -8.7236146180944011e-06 -9.1938856889108094e-06  1.5678662160474063e-05 -2.8893236537693437e-05 -1.0890550989280428e-04  -2.4172180724852206e-05 2.0099108192104078e-05 -8.3778953501995022e-05  1.2318718351150550e-05 -5.2011716312104034e-06 1.8957840991915055e-04  3.1349780579723425e-05 -5.9870687410276063e-06 -1.0607246536325699e-05  -6.7685444530057555e-06 -3.4923940099875500e-05 1.0696508848858822e-04  -2.2229858459589581e-05 1.7136059050653141e-05 1.0722679907401751e-04  1.6585091440333984e-05 5.4504996686970690e-06 -1.7889652359189912e-04  -1.8136116252536400e-05 -2.6637072521645698e-05 -1.8062812726293032e-04  6.7266816017233822e-06 2.3371190408834113e-05 1.3056200034149075e-04  -4.9655219361032678e-06 3.2183544492758986e-05 7.9482433000801602e-06  -1.3829858663865179e-05 -1.2706879674812185e-05 2.3877430107080715e-04  5.8426497448059618e-06 2.4833323165875818e-05 -1.5074541628125400e-04  -9.1678616590277089e-06 8.3704808218537977e-06 -2.3017398789363237e-04  1.9677385919629578e-05 -2.6298086982865908e-05 7.0795266278889525e-05  3.1806334010275479e-05 1.6235347409268687e-05 8.3572797123777161e-05  -3.0170962907022547e-05 -4.5522123394561413e-07 -1.5192787615895685e-04  3.8835383059564981e-06 -1.9444065150707558e-05 -2.3890960040689189e-04  -7.8163381277158961e-06 -4.4554620328130728e-05 -8.8684460573811653e-05  -2.8208116576385591e-05 -2.7776853438746729e-05 1.4383497531987593e-04  -2.4945774126140177e-05 -3.5525182070841364e-05 -8.5821557027888183e-07  3.2642843015144247e-05 -1.4687404056206108e-05 -1.6553356785471886e-04  -4.4905866559393366e-05 1.5163895328960832e-05 1.7233457128110866e-05  6.0292540271636402e-06 -2.9142886143820160e-05 2.1063917417607223e-04  3.8828318576089013e-05 1.5325612876580950e-05 -1.0029829636913017e-04  -3.5290988353994373e-05 -4.1650668714185748e-06 1.3454187111770077e-04  -3.0128749558337216e-05 3.7853648265255250e-05 2.9548334452758171e-05  3.5160277190022971e-05 -1.2287366883244342e-05 1.4318964350808878e-04  -8.2897007601778869e-06 1.1869367698435647e-05 2.1884400888402041e-04  1.3073017652899548e-05 4.2181118686977755e-05 8.8491066273652572e-05  1.2315681092429881e-05 4.5688030076867402e-05 -8.6147941672727574e-05  -1.4028445434399899e-05 3.9369353240370292e-05 -1.2210797283942183e-04  3.1767232087538304e-05 -3.4772814236585374e-05 -2.7949416671338962e-05  -1.2275489763865550e-05 3.7764053882664070e-05 1.5670348257570998e-04  1.0509716098974034e-05 -4.5420645006259594e-05 2.3139064202950095e-05  2.0375924887402695e-05 1.6352015967690778e-05 2.2749886643158040e-04  -3.7379532892265202e-05 -2.3913733401432998e-05 -1.0938820952701526e-04  -5.7187115245686453e-06 -1.7805457590185503e-05 -8.8268741736474314e-05  -1.2951360117227413e-05 -8.8124073845931410e-06 1.1471152194111439e-04  </DataArray> 
</PointData> 
</Piece>
</UnstructuredGrid>
</VTKFile>