<?xml version="1.0"?>
<VTKFile type="UnstructuredGrid"  version="0.1"  >
<UnstructuredGrid>
<Piece  NumberOfPoints="201" NumberOfCells="657">
<Points>
<DataArray  type="Float64"  NumberOfComponents="3"  format="ascii">-0.6389162552703298 -5.049430927559299 541.8816456018719  -0.2561852945324298 4.848049620841762 -542.2783960629441  1272.766677689807 4.303041998013026 -522.1586844152714  2399.639997470319 2.631176602024874 -457.6867554422925  3266.655961917291 0.9469191719150249 -346.6663345562287  3808.655056317544 0.1367250441753171 -186.9003474193787  3992.986898487628 -0.3218359698864365 0.2357066911036159  3808.800346301082 -0.7130907723622555 186.9365580780809  3266.634933923325 -1.308540285030167 346.3164254238555  2399.485421563566 -2.631834800412294 458.3096707778714  1272.863819046654 -3.900493508303721 521.7121589202022  1603.683906833496 -1120.958278464669 -404.3323525966309  1596.246815926842 870.2068151597377 431.0629946267462  3802.777433005724 -990.6202922043765 -39.03648121940259  2775.915757689738 -1088.236627065762 456.2011488066871  3475.668107037249 1003.471152248099 196.0607062896065  3461.975049063275 1004.211396120139 -312.3023328752184  1788.649606461832 1008.880834154128 -553.1085382756901  620.0292991916898 -1012.462338723956 599.1466714887981  2760.040661322337 -1000.255105549535 -330.4761864142812  1922.052192852054 -1962.776393046878 -275.8879023660616  2831.510824288607 -1917.711217185507 -176.0162773080143  1937.782143924798 -2736.773147185801 -116.3546553185681  2716.494326628107 -2563.703659761382 -1.480116371902845  1702.005997861898 -3247.280267377178 57.11019432383513  2421.885023716577 -2915.126423960911 181.9761491119789  1270.605118043371 -3466.633898001351 237.132357446225  1851.175817354815 -3019.372040277174 368.2326848058185  666.7361825870132 -3381.49312687026 402.8350537764851  1194.418534237776 -2771.562339925035 516.3378032035547  -46.47908796649629 -2975.872451616967 529.6503009406925  2839.678471880309 -2374.075991881339 299.1428649350278  2760.791940760565 1000.011850597764 330.7961164936004  2775.302142112563 1930.537952506177 184.0934498045972  3338.816398219578 1845.791547559893 39.82296840763254  451.0270173332846 -2225.397152915138 602.0088000795639  1650.596358811621 -1949.994026076806 557.3867203951695  1924.154966060664 1851.531533004341 293.1318595282581  1835.19832680141 2696.059213764448 139.1570803159984  3810.363358446576 -966.7887610608292 140.4246660018496  3355.306155029165 -1993.96466815554 113.8564069151611  3483.856361389634 -1004.442360104326 -193.4138817773124  619.8723048924151 1012.674661711014 -598.6400341045126  2733.737090889686 978.6017376730734 -462.6446739477703  2754.056411363598 1922.064195609184 -414.8886464765517  829.0724801908968 -3281.843059035296 -50.89386215478829  -580.2563432465829 -3421.356331578577 393.4281458031551  825.2958142699656 -2017.421604529447 -315.5736516739821  3316.382210801236 1868.736489217031 -240.8485877410908  2479.189160687939 2695.531711078337 -314.9642140561673  1773.217949814627 2632.267009867875 -478.2511694327349  1389.281153319844 3263.790883351079 -360.9704680048092  617.7760718876957 3074.651856057757 -495.7792235388658  178.8355654215196 3530.23624603736 -358.2237248201158  -632.6870205408925 3161.270803280263 -474.7924883657755  -1036.814075681369 3466.191990325924 -311.5177437511077  -1834.269139596408 2968.676255675787 -390.7361603906977  -199.7941745913155 3666.284975765304 -183.3649073800236  -1285.394018870705 -2859.572088524674 492.9969541086335  -1761.291773599547 -3149.902770785342 334.0707792562421  -2144.478131966067 3078.514257110837 -223.6787544368176  -2839.161846116889 2414.033393673686 -285.486662674891  -3017.574245830305 2405.975309404321 -111.0414677783936  -3546.469873553122 1590.022520976735 -180.7198759094285  -3594.577307590765 1509.109888937109 12.81460290212464  -3168.310100197796 1511.534953358369 -360.0555072092941  -2912.373805383304 2229.849445292618 72.81127837047006  -3759.185631789766 661.1736783997233 -213.3112332819694  -3339.043287819494 1243.349899079337 193.9086289728855  -3227.655430333527 427.2022837691268 -373.6775082934954  -3603.228163113274 -479.7401026887185 -225.4279777765135  -2497.581307787261 1876.566298456029 235.4142839198477  -566.9241463574557 -1549.104801356562 611.5043211556648  -2417.770222843171 -2444.43672300668 405.0058999400887  -2911.059641910956 -651.1454718205159 -349.7646936231285  -3119.504570300186 -1525.700101981396 -195.538709642101  -3842.91982835226 419.5483449151063 130.625008071489  -1352.431006783383 2472.237615153809 -542.7594540446499  -2775.301298009468 802.7251413521319 351.2941677705509  872.2576780762822 2496.609651375536 239.9745566426291  -3696.8614888116 -1247.427183660769 -38.25560750710524  -2375.312067348394 264.3333018169223 -476.9764700989471  -1849.878373599592 1433.469360108178 353.7396192428017  -2268.131977228053 -1646.073173339194 -296.1978851133143  -2352.219607160123 -2440.102118742166 -136.2733203784532  -1980.456924164265 2745.963139990155 107.3824262890198  -1003.600941434377 -3547.367193761319 226.9484027476716  -1957.447371198196 239.0614063943883 471.5006936270597  -2863.453362505815 -350.1189358896992 428.4907712686434  -1368.320699349755 -2453.995020019963 -226.9428737111786  -1358.750094337448 -3113.341602672528 -66.78092105504584  -1192.755720261505 -1560.993272029077 -366.7040708143801  2020.353755845169 3166.628549968067 -182.9231046172955  -2721.34750383051 -2614.619687276928 245.6153465146698  -3285.198557532415 -1770.128910654333 282.9318599114983  718.0751096550408 3198.129213336187 85.85137738479463  -261.8064010142151 2892.612091680126 175.5801011666402  -91.50719915515774 2189.67757504544 300.901543928752  -1114.338598705273 927.1656248866466 442.2832958725979  -1831.782538690162 -2010.444583947151 539.3905015586085  955.974813713798 2445.257138210985 -570.3220334038857  -2236.894813940311 -2941.528185043795 27.5255727364228  -302.5878570264118 1885.38131642099 -615.3269110749128  -676.2867102381375 814.6205470187782 -589.2253879345965  -445.3123757199822 3436.590210613285 8.661771901782039  -870.8313218802496 -578.8271421462217 572.3773477422001  -291.0305238723344 -3026.537339458337 -144.3098861200546  -1866.901898354467 -921.7995810946754 545.8611396919972  -2840.236780348707 -1472.248156839795 435.5886946585377  -3518.188169865307 -706.4454370353765 305.2297883143779  -3827.317266961466 -914.3858730882779 133.0319506978904  -3975.156224633065 -118.520490440697 -47.23574429686518  -1567.754840750606 1601.113306820749 -573.0456699394952  -2357.764204226189 1763.178276648584 -494.3720377915878  -340.7964005125408 -3462.818269023475 -0.6638067930036846  -137.8299611526908 2737.131900601462 -563.4457589956232  1591.579888291874 3233.578301645065 -19.66559344007662  3461.933581622467 -961.1025326784601 314.1185125300379  204.8667181964208 -1054.257568013506 -441.3703721298979  629.4545598927632 -3583.185082211887 100.0959805889756  -1234.823218855326 2367.541605277078 248.247838250997  3818.829789122947 928.8528187770554 -140.351310945789  2551.808557479077 2670.09606509871 11.44014909469419  3005.202347602118 2419.454603655229 -131.9186067319086  -3051.015656219601 -2191.662229841417 -34.68695480194403  -1319.857176181416 3455.267330078159 -136.5342332197901  -2217.253720513462 2984.243196550546 -48.93233844233794  -220.9910457219148 -2269.97274033735 -286.6071841795869  -960.7568107200993 -412.792559093454 -495.8210413653784  -2010.23888654745 -664.2455452265546 -430.9429201188904  919.1146234084651 3568.750637974444 -220.4140819142223  106.8469848493437 -3648.974393360161 261.3572375109262  2222.42773060206 -2337.245290304829 459.720927039241  3824.942937258394 940.5832983693537 33.18726054058801  1789.186822831002 -1001.516373143927 552.9166162752457  -3374.474873154814 -1964.809143768477 116.7102027607693  -726.6155787736521 -2449.599038689605 579.782051626853  1977.780748578602 1798.872215928036 -535.4153579082969  -3448.292557966631 294.9583648616452 285.5917098666935  906.2694298262459 -2754.091912542512 -188.8697347912857  1001.346761499994 1785.438018771828 342.977983191354  567.1229302467987 3554.123104238363 -66.99822016200375  -2498.270930182869 2317.03494275871 -412.1520727014221  3344.917924596443 -1778.089014199969 -62.78650936898826  -63.24602768469205 967.977966065273 450.9693893253067  3042.531220057403 -1735.391212709399 369.6511224559924  -3875.512893162824 880.2861012327201 -59.52948018574233  -2058.859388391713 -3148.59817129093 171.8775462562419  -1257.891480771896 -3434.252587243096 84.54084379270414  3580.603238358592 1628.915682481363 -87.78538674464977  -912.5569848461417 1831.582137195233 339.7865403726182  1135.777148680056 1668.723753959787 -595.2943735874385  -1387.234250445312 278.9079396995486 -537.9095352523067  -1461.677173412758 3220.596429771319 11.01220131643623  3402.574286884634 -1654.979792670141 254.5683464802925  -272.5143653434507 -3645.994811343868 134.6847727049606  -2604.776718140351 968.3858683034306 -479.214351505507  -1794.499236418966 827.188978574953 -547.2359441208961  -1124.796213009138 2969.200469466617 129.3042363632893  -2803.638238019013 -2610.147116029265 102.8728602053903  0.03546184429533761 0.06346305429973817 -0.1041489870437285  -1307.408379392547 -1460.809586171453 120.7998248705463  1977.531537156011 570.0316532547571 -43.70369481741211  -789.2406585564111 1535.092022015696 9.242924707353652  1475.954833335421 -1090.119825674434 190.9943413709034  -968.0492751791194 162.1582099403696 -255.328137685007  -2034.346813015762 290.0639661237526 -20.46750167557213  389.1567286397981 1737.246090697188 -233.3028130661166  1378.571879791681 -855.740202892157 -101.7003787486776  -1075.733551838644 -165.2205714354797 248.7849067430678  1027.455939162537 1291.702424574744 96.88974290243414  -379.3307444803363 -1474.497056409877 -98.51203745331799  337.0585306439788 -2125.058717937397 150.8697643092856  821.1711167892868 569.750125
[...]
<PointData  Scalars="Pressure"> 
<DataArray  type="Float64"  Name="Pressure"  format="ascii">-6.5448471258467950e-02  -6.5333629869979370e-02  -5.9342749601530374e-02  -4.3007478321754382e-02  -2.1167803802077077e-02  -8.6268648803207795e-03  -3.3089709297174706e-03  -8.1178304506622709e-03  -2.1944408162964203e-02  -4.2726138709211429e-02  -6.0404940801496838e-02  -5.3054287455470507e-02  -5.3320022815630905e-02  -5.0020584642202371e-03  -2.8193340337606555e-02  -1.4288433743837996e-02  -1.3614138306435979e-02  -4.6758621910458466e-02  -5.8892178637219093e-02  -3.2821979624110639e-02  -3.7865586809004120e-02  -2.0120515269411179e-02  -2.3213895503840381e-02  -1.1773585057016379e-02  -1.4009672272862697e-02  -8.4995175806919562e-03  -1.1927243789273081e-02  -1.4667457784489106e-02  -1.7341234147985510e-02  -2.5820345522516941e-02  -2.5581660158512962e-02  -1.0352640634514803e-02  -3.1502442559306676e-02  -2.2606337526558232e-02  -1.0452362777010808e-02  -4.1468368103700658e-02  -3.7185906311571391e-02  -3.7924722240971674e-02  -2.5823182373492039e-02  -3.5256447533121185e-03  -5.4937424183059977e-03  -1.4996429761711628e-02  -5.8613246472862743e-02  -2.9807449549030418e-02  -1.8507212833864944e-02  -2.3752277903829250e-02  -1.6729151695666192e-02  -4.9021730016103562e-02  -7.3828113860936444e-03  -1.0834144022631911e-02  -2.2819592084821441e-02  -1.4256058548056463e-02  -2.2239379991775245e-02  -1.4428710858601888e-02  -2.0838349522834761e-02  -1.3227100804626798e-02  -1.4365850008958706e-02  -1.2977767766436086e-02  -2.3182670231078055e-02  -1.3008570923924637e-02  -9.7057069738549807e-03  -9.0951038624064919e-03  -7.8107872017719035e-03  -5.4628964940699690e-03  -6.6456728273565236e-03  -1.5064583987091909e-02  -1.2866840825493761e-02  -8.1528112873182190e-03  -1.6563276439150419e-02  -2.1738886268667344e-02  -1.3522996333627024e-02  -2.6888157651023561e-02  -5.2115389477723026e-02  -1.6435065281902052e-02  -2.9823901485301410e-02  -1.9210694907463518e-02  -6.1489646294848530e-03  -3.0371226532080978e-02  -3.2394374943064408e-02  -4.0889968472293495e-02  -5.0599720246454882e-03  -4.2548907590935353e-02  -4.5543713581715953e-02  -3.6422947685637336e-02  -2.2561900400815273e-02  -2.4048502850347476e-02  -1.2104151138873986e-02  -5.0573551670707109e-02  -3.0923220079451825e-02  -3.7120069240025019e-02  -2.1880798069259400e-02  -5.3371483997199834e-02  -1.0807755278172956e-02  -1.0291117799314001e-02  -9.0904667800946679e-03  -2.5926679841871796e-02  -3.6430564354176694e-02  -4.8919719530367251e-02  -5.8208036502229422e-02  -3.2378804423797862e-02  -3.3711543459034952e-02  -1.4790025505421975e-02  -4.9275550963486563e-02  -5.7875776881951752e-02  -2.0851614846941698e-02  -6.1457307243394051e-02  -3.1489381005157656e-02  -4.5372053793630997e-02  -2.4542329595148137e-02  -1.2209245053142234e-02  -4.7478334785883416e-03  -2.0701520833085853e-03  -4.1878127622762086e-02  -2.7749563398126679e-02  -2.0424415445967271e-02  -3.2416600329461642e-02  -1.5991622379651026e-02  -1.3115157100065946e-02  -6.5494757147602140e-02  -1.5202516976206610e-02  -4.0675824551701573e-02  -3.4920700598565103e-03  -1.2940663438252125e-02  -7.0087459084395643e-03  -1.0268500131709293e-02  -1.2622699936541576e-02  -1.2586170556753434e-02  -5.0109449749956722e-02  -6.1744529038167011e-02  -4.9723565043879217e-02  -1.2448797167345961e-02  -1.2645212005569759e-02  -2.0378095927952089e-02  -4.0928761180329485e-03  -4.6507844434009932e-02  -4.4035409253883251e-03  -3.5913376865112458e-02  -3.4398199201096075e-02  -1.7100027322628549e-02  -3.4734331336093265e-02  -5.3432571616766324e-02  -1.7116747336226382e-02  -1.6618251173213250e-02  -9.9398231587726499e-03  -6.6251067749738768e-02  -1.6221689623770567e-02  -2.7137021525815413e-03  -9.5148664074197423e-03  -1.4466758826062198e-02  -5.4339710945377866e-03  -5.1989461171051889e-02  -4.5630651412210538e-02  -5.5787482343515840e-02  -1.7503915874129732e-02  -8.3002731782112881e-03  -1.3980817672587664e-02  -3.2606226372993583e-02  -4.7106220759307572e-02  -2.5526760402763707e-02  -1.1020436794338289e-02  -1.0340826330222820e-02  -7.0093315977401193e-03  -5.0057859519705619e-03  -1.1511924907307680e-02  -9.0212564367108290e-03  -1.9263212177153863e-02  -3.8367746686434534e-03  -8.0567718223978901e-03  -1.3380843187351818e-02  -1.7811802977944650e-02  -1.5363140102926838e-02  -1.7830327177858589e-02  -7.6702122861931040e-03  -2.1791399101268687e-02  -1.6087108060296802e-02  -2.4302060932827944e-02  -8.4085975741185499e-03  -1.0161670740511561e-02  -1.1792830774744507e-02  -2.8193737333918428e-02  -9.1204391459305239e-03  -1.0000823714296942e-02  -5.7807474667022889e-03  -1.2200367654958756e-02  -3.2922182577260137e-03  -2.2127686315552248e-02  -6.0133376429634946e-03  -1.0136295174036662e-02  -6.7969029410636945e-03  -9.5607788635685802e-03  -3.1373274819953667e-02  -1.0483161909166330e-02  -8.0637844562343308e-03  -1.0706285886614982e-02  -6.1119229847464897e-03  -1.5199868782408305e-02  -8.7034977828349021e-03  -2.6392751488660614e-02  -8.4614653674561120e-03  -9.0540118088919437e-03  -8.6490094808245339e-03  </DataArray> 
</PointData> 
</Piece>
</UnstructuredGrid>
</VTKFile>