<?xml version="1.0"?>
<VTKFile type="UnstructuredGrid"  version="0.1"  >
<UnstructuredGrid>
<Piece  NumberOfPoints="201" NumberOfCells="657">
<Points>
<DataArray  type="Float64"  NumberOfComponents="3"  format="ascii">-8.301509680410492 44.11007330513498 633.0791671396488  2.832423354042819 -45.07636323474266 -635.3182678008041  2428.364448749419 -7.532812832656403 -667.8899516909271  4465.892018963682 26.77029356770677 -653.1600481346502  5920.292217873503 49.30920920824727 -559.1282956700347  6780.459815467175 58.59766658719034 -349.331388098541  7065.594998876832 60.86424655085498 -72.55094990915572  6781.24728956372 62.71087927759234 203.3104465003534  5920.098012070828 67.58007421458349 418.0201625290845  4463.108458151073 72.70688420074697 533.1011990777259  2422.563141431907 68.34199160532791 595.8427957049241  2982.839280650649 -1790.701503194505 -985.9595162060272  3022.954568301042 1467.079392980438 838.7523517192571  6722.180679256715 -1498.449410442185 -411.6434500095655  5055.675784255083 -1657.333521399975 185.8798910942065  6237.789702541111 1648.219022014195 525.8099409864259  6221.986704328191 1638.63182223385 -216.188888069741  3382.628440644993 1623.848025211236 -356.1896477540971  1157.675287458798 -1573.731873812383 283.8541399822419  5025.677638411746 -1550.755032231421 -858.6514463436391  3481.103047896464 -3085.914003760525 -1107.322448708012  5054.809080217417 -2973.179055843524 -914.9015285563692  3426.503370669462 -4257.509540652964 -1072.279049081332  4776.933131993035 -3960.063035309242 -806.9125097665719  2962.63957910741 -5023.570869430641 -910.1533160365602  4236.16180127246 -4498.577456502113 -621.9984917956695  2189.187055512137 -5360.290469972114 -701.9174273321918  3249.775610061753 -4675.058363821549 -435.9024330413762  1129.866624331941 -5253.224822001755 -499.5428954026507  2117.924299579974 -4325.021699668349 -269.1943646590142  -143.4804226025041 -4668.416996928486 -299.5970566988815  5015.090412019263 -3663.684481765698 -330.3523396708326  5067.330857612958 1657.327669816879 735.054009231022  5027.318074567327 3099.380654269629 820.0203772000622  5956.868447517754 2955.304811651617 531.4342980598643  790.1516605988948 -3507.954533391565 -88.2455913208567  3015.935890600471 -3042.347021760093 -28.09007623579304  3567.696770091725 2994.629044592105 1007.994459474039  3348.255900786618 4274.499800602889 1025.643387828617  6737.950051036484 -1458.978645827689 -136.9232199555415  5907.392344857588 -3066.2563402415 -463.9591289280194  6218.964100328159 -1530.228290002036 -657.5632580240742  1209.383372173598 1603.267446329031 -315.9286246965357  5033.804917001148 1592.166356524583 -348.3357041628395  5002.773805976325 3073.062304419958 -27.99833790025439  1422.653467287604 -5109.112451019963 -1117.842611334907  -1100.823614340507 -5340.42386350701 -493.9359840962207  1493.89937668729 -3217.50983775346 -1183.183267523832  5922.89271022841 2988.605436482334 126.9794530538596  4458.309079443186 4257.629810221929 297.0677912238181  3261.282175130256 4164.483478166056 168.3549032133924  2532.717563771505 5111.05929117387 450.1671413698203  1175.768823336535 4823.775509560035 323.4712004399079  375.8305434245677 5490.571069047723 560.8888281321058  -1085.804359539009 4928.706845663177 390.5043826564577  -1786.388396327991 5366.997352457322 611.0149066630294  -3231.20550271794 4603.257361467176 404.9653485874696  -297.395956507038 5682.088444728268 817.4702457519726  -2386.032048792454 -4511.524369038006 -246.5647602811739  -3189.273049798607 -4947.353978192727 -436.4414294535163  -3749.138805270803 4757.458230018335 615.0315759057477  -5006.635548177373 3730.415281100428 358.485638882517  -5297.625967961179 3713.193392305872 584.1252167739905  -6260.890480109924 2437.139538648252 254.9964585619546  -6342.448557590332 2312.970264448272 517.0056778419998  -5661.219686033429 2321.358669011724 23.94224485499348  -5147.04465666035 3450.665310410802 833.748634557139  -6673.645533246895 980.6548851312325 -47.53163703328932  -5958.480901648932 1909.766749249895 731.5405451303361  -5840.749235467257 609.2010079967703 -313.0450347447224  -6450.941845846374 -824.5533455780439 -406.6614756613526  -4494.058625682049 2927.935092022346 1008.039390211594  -1116.480607124484 -2462.600775112806 143.906485790194  -4387.387027737364 -3882.307826030292 -148.235524660204  -5327.235517569814 -1106.711465547642 -638.983919491735  -5625.549154504161 -2471.056932152793 -700.584470481077  -6814.385440592513 604.22483564283 392.9051359532349  -2430.646229990569 3864.157693504418 175.3263291288938  -5065.067821423542 1240.65797011857 822.7452435313229  1646.960322360907 3979.263880962977 1186.411412798452  -6566.992104553608 -2024.217264979206 -349.2708476259185  -4410.626600014353 346.09001667695 -464.7443054054743  -3402.107540140609 2273.269618581988 1041.885705071079  -4182.32409289834 -2675.500736030887 -930.5573697738402  -4264.86499885332 -3885.914430852637 -917.8899211020397  -3501.171590201421 4274.425851694478 1062.592657987425  -1837.682033767169 -5529.744064657548 -695.3672633681981  -3673.785466534076 375.822894015421 735.3143968448736  -5258.416591909995 -594.5675447599114 526.2324603105385  -2544.254333810763 -3918.506202431676 -1129.114803651614  -2485.822623883254 -4900.009486970947 -1044.660398892506  -2265.371331223878 -2553.529168666866 -1039.029439266239  3630.392130831496 4965.590120404099 611.6273063938602  -4873.00653841529 -4138.963027260666 -354.8814353954887  -5881.075831851495 -2838.10090532558 -50.1119091675771  1343.635177873851 5019.150734694502 1126.179004095473  -426.6419241763217 4553.189494767235 1228.733341591804  -127.0637157840244 3501.858942388998 1208.953347141915  -2092.841972497718 1506.247536799568 946.6865596922351  -3413.67055317281 -3211.908981612006 41.63839368302033  1814.244338282099 3875.403031372369 111.157400012199  -4018.783924944435 -4639.409122895855 -790.635643472753  -523.5918176664781 2977.409070636445 -17.80742433782472  -1270.940520526982 1253.138467616543 -348.5580305924227  -739.1678746581713 5346.099736533667 1078.713179544406  -1683.692234839205 -910.707800047971 463.3360556205458  -582.2469263941143 -4764.554070494363 -1204.713165240548  -3522.139832689089 -1486.801543191599 382.4299472894447  -5182.963158737434 -2374.397462615856 174.2540870153557  -6314.390644614828 -1170.877164307208 296.0862809482697  -6788.396011326484 -1499.861369120069 8.082036621275662  -7031.884852907505 -248.4831332005229 -32.30602565659132  -2894.131574877387 2495.915362943545 -84.20639654995497  -4278.308390771742 2732.593749819302 -4.57475400863322  -670.4066826815902 -5402.761705384849 -1058.510407472244  -198.576780285306 4301.461850040816 223.7208583023809  2881.430500210769 5069.547309819314 906.2725269163831  6191.204246677394 -1450.776009249987 88.80573663450608  364.7005914787298 -1736.783279255213 -967.9055546547461  1053.230000673297 -5553.027410711199 -931.2340703493188  -2217.333232196535 3736.764622223905 1201.052475232269  6782.878920714173 1521.804754550445 -16.27985237329685  4576.992710911827 4222.920851643933 756.0415656667806  5357.294505863106 3835.539879216676 438.0506597295132  -5455.283341287701 -3493.912292291904 -639.4552723027675  -2282.04661876907 5345.4068976243 841.6240506764533  -3880.655181750685 4616.475189947146 848.8617120104373  -455.0547060071948 -3633.301540236414 -1210.823214994547  -1838.475858542684 -734.822456300259 -741.6095758618782  -3771.94146749045 -1137.905713590109 -753.4407086842322  1684.477502591663 5557.737132288681 713.308536810124  123.8213412152307 -5660.202018713282 -706.2670915925148  3975.888858812596 -3627.429915178156 -180.7374641244265  6790.442587417631 1542.247724263316 248.1385934897888  3333.253053751431 -1533.062467193294 267.7598836218606  -6004.359148223431 -3138.554376919175 -325.356581705518  -1398.124626331379 -3880.115257351325 -120.4879743225614  3685.587712570906 2879.093077220907 -108.6097239943601  -6197.752541616934 416.0655595761637 576.1657840851441  1593.657871458724 -4327.944892294275 -1220.876061994606  1903.68402143969 2899.427873689957 1095.373737328778  1062.138728846389 5534.423123586583 953.3856653687812  -4453.027748942356 3591.061364618401 210.1297838591082  5915.942541529381 -2735.690410867374 -676.8929612700834  -102.4769815521157 1603.786867365148 936.4358478480876  5433.962717173124 -2672.932538048075 -81.96374977067187  -6839.007936295842 1326.027450859749 232.8076525983087  -3695.473177258947 -4946.778853926715 -629.8702459885465  -2287.526370296004 -5367.926074066213 -869.9712501275663  6364.25630278494 2615.22606396566 262.2232055895786  -1666.780109185284 2929.379458150854 1153.871867223429  2173.86795111442 2662.790648549976 -132.0765402534244  -2628.176465819075 375.4799748804788 -503.0743427653967  -2550.784119089208 4998.247255221625 1024.707776345404  6026.670277600151 -2539.166875541317 -180.6310983311299  -548.0789285214631 -5665.819390576999 -878.1367082150098  -4775.035597488949 1471.47977528302 -231.5200277900003  -3351.275123184617 1254.416503451237 -318.676976878963  -1976.079175520104 4639.442927629164 1171.211236493549  -5005.814620819222 -4131.75625447634 -549.1987924590868  -0.1950173225928876 0.04826269395432717 -0.2125145039432509  -2491.000540148942 -2371.015661365885 -383.5582981092878  3727.385179984869 958.9435398611414 115.931143807369  -1458.11981714656 2453.992241251292 636.7765504667082  2760.569819239956 -1709.503989811971 -229.022456744223  -1851.489475491046 216.5810219734197 -210.8337674040972  -3815.832807739286 421.7917452298275 136.5299353499674  776.0785999220078 2786.845253616902 385.6125104433833  2594.101904642373 -1358.179666203397 -501.6940334564651  -2062.793465235916 -270.7241249611237 260.1070765452947  1971.775949540418 2112.98339449689 604.7868793657758  -751.1861136636592 -2393.911719346812 -698.8569913451627  583.4218502964931 -3382.0799234745 -625.9351114235869  1587.747723208458 914.7272541640755 -163.5054688661996  -648.9
[...]
<PointData  Vectors="Centrifugal"> 
<DataArray  type="Float64"  Name="Centrifugal"  NumberOfComponents="3" format="ascii">-7.8591011310252594e-07 8.4314881976494692e-06 4.7181143120327717e-06  6.3728534153083978e-07 -8.4808361096308564e-06 -4.7391505029321823e-06  6.7987383513789273e-05 -6.8422593225507173e-06 -6.7201778259885332e-06  1.2457286888530283e-04 -4.9048246880621093e-06 -8.0730326323015330e-06  1.6493144516188169e-04 -2.5722940755829820e-06 -8.5097464321133532e-06  1.8867610638813984e-04 5.4323513447497311e-07 -7.7981934502513357e-06  1.9636021309043069e-04 4.0074464740872840e-06 -6.2034278385994293e-06  1.8819494687586220e-04 7.1632273233400655e-06 -4.0995950633404735e-06  1.6404192886701265e-04 9.3704958398727753e-06 -1.8363717245823909e-06  1.2343350620095851e-04 1.0107934655101038e-05 3.1668483753244975e-07  6.6708742956402887e-05 9.7303135763579561e-06 2.5421217146438348e-06  8.2783456808030554e-05 -4.8276201599001588e-05 -3.0375295095931970e-05  8.3866850368334532e-05 4.2675034720670411e-05 2.0108972479826865e-05  1.8633782225045158e-04 -3.3379155915963449e-05 -2.6544444991882127e-05  1.3935982633204698e-04 -3.0531865320016280e-05 -2.2945744392965835e-05  1.7359382106919196e-04 4.4460071333292644e-05 1.7248659791588086e-05  1.7382449889146879e-04 3.5476521662468739e-05 1.2247667148673159e-05  9.5025082089102936e-05 3.2050537171562772e-05 1.3727172422459109e-05  3.1066759613006438e-05 -2.9540862143850057e-05 -1.7746060542527960e-05  1.3953733582327995e-04 -4.0632787694073257e-05 -2.8565245519526878e-05  9.6100632929261632e-05 -7.7039070045442610e-05 -4.6927114399428149e-05  1.3970997002078975e-04 -7.1574260378348524e-05 -4.5763151044524424e-05  9.3986503176536114e-05 -1.0161139230112298e-04 -6.0488268520726983e-05  1.3141679912100031e-04 -9.1461706432429383e-05 -5.6456206180532875e-05  8.0580983651378968e-05 -1.1625389160242679e-04 -6.8047854014406740e-05  1.1595901191298448e-04 -1.0102109373067347e-04 -6.1103605877770698e-05  5.8739572163496555e-05 -1.2135568858548119e-04 -6.9944647540543938e-05  8.8291260262331244e-05 -1.0307120171684152e-04 -6.1054809906148347e-05  2.9182532174329567e-05 -1.1720709562029347e-04 -6.6370862577064331e-05  5.6866665428678597e-05 -9.4198994419943439e-05 -5.4776499079077326e-05  -6.0663479713873146e-06 -1.0301135853355402e-04 -5.6970720374821723e-05  1.3773990766038154e-04 -7.9392074289319096e-05 -5.0022003651826925e-05  1.4085651942956145e-04 4.6533680479953185e-05 1.9806154159487994e-05  1.4042710772221376e-04 7.8227402006283563e-05 3.7433018493493289e-05  1.6646401454270147e-04 7.2222340257001313e-05 3.2978936670144775e-05  2.0241396267600281e-05 -7.5310555117553781e-05 -4.2710091309197334e-05  8.2207277794649284e-05 -6.3570322001129458e-05 -3.8847681951285043e-05  9.9637969136180332e-05 7.7475508626218887e-05 3.8766388659069583e-05  9.4202115538639315e-05 1.0483807985187345e-04 5.4201878442375710e-05  1.8654408013357127e-04 -2.9283740576047976e-05 -2.4277964861551273e-05  1.6296087270109634e-04 -6.7799539035473517e-05 -4.4664166021987869e-05  1.7254536540556230e-04 -3.7216140166307533e-05 -2.8084080166477010e-05  3.4654571034852268e-05 3.0983266942286077e-05 1.5725967983153403e-05  1.4087725759913590e-04 3.2314035990756446e-05 1.1905099606578672e-05  1.4050153125052327e-04 6.7625166861474796e-05 3.1539423074961780e-05  3.7951534433734947e-05 -1.2130362906922895e-04 -6.9023278452847036e-05  -3.2815213491701853e-05 -1.2012365291346911e-04 -6.5329637381760555e-05  4.0923033925700222e-05 -8.1736507606219744e-05 -4.7168106369218412e-05  1.6590427675987942e-04 6.8132701293848071e-05 3.0730840938075643e-05  1.2570375633002369e-04 9.6430409517145790e-05 4.8178347883566137e-05  9.2505018596455738e-05 9.2306181824210968e-05 4.7312251679361796e-05  7.2510022202064008e-05 1.1544577720150372e-04 6.1026571085646778e-05  3.4787323760461370e-05 1.0712952159927652e-04 5.8025680814094771e-05  1.2699390797187562e-05 1.2375269592378540e-04 6.8209451833907837e-05  -2.8017235948988232e-05 1.0901867951832174e-04 6.1771507176106006e-05  -4.7460542092612366e-05 1.2062399331310602e-04 6.9053914462877117e-05  -8.7779398098186795e-05 1.0118209041894648e-04 5.9983280949051700e-05  -6.1354551998267183e-06 1.3053366477069244e-04 7.2785423106136907e-05  -6.8303159400287200e-05 -1.0017786140831199e-04 -5.2724610948990297e-05  -9.0676433500266469e-05 -1.1212692581353703e-04 -5.8402782874698765e-05  -1.0229119813148424e-04 1.0669709884866012e-04 6.3670317116411667e-05  -1.3749951941604969e-04 8.1148906383645048e-05 5.0987746131751434e-05  -1.4580715935083588e-04 8.3305779826441909e-05 5.2542717144165517e-05  -1.7290497214109910e-04 5.1750735452571399e-05 3.6174663274669850e-05  -1.7547484390718280e-04 5.2162251764777889e-05 3.6513620409806585e-05  -1.5606846149514238e-04 4.6851222475884736e-05 3.2729783140944114e-05  -1.4197349150107526e-04 8.0738533799290426e-05 5.0951821847837466e-05  -1.8482382550714366e-04 1.6948778011717020e-05 1.7351042273158715e-05  -1.6518524157608887e-04 4.6303536813753944e-05 3.2816889496071125e-05  -1.6159259990348776e-04 6.3188970266974594e-06 1.0447948738909064e-05  -1.7920914062899629e-04 -2.5620760007111730e-05 -6.5408266260606128e-06  -1.2423009021730400e-04 7.1991505906834555e-05 4.5330402060372891e-05  -3.2353867957215805e-05 -5.1264037689077881e-05 -2.7092349676146455e-05  -1.2366570005868823e-04 -8.6632300685130921e-05 -4.2822200080473142e-05  -1.4788601935149877e-04 -3.3806016846800045e-05 -1.2433124499222493e-05  -1.5683872191985185e-04 -6.3736458485197142e-05 -2.8677562943184540e-05  -1.8933072107507124e-04 1.4067466644790168e-05 1.5943724788817223e-05  -6.5688583190990046e-05 8.3110556120640880e-05 4.8994704928459246e-05  -1.4075220099349584e-04 3.3585343145319347e-05 2.4701974316748198e-05  4.6647982445980481e-05 9.9584449041749653e-05 5.3324595052360454e-05  -1.8311405713444001e-04 -5.0548083721762045e-05 -2.0222333013886246e-05  -1.2182862609082365e-04 -3.5825456119744751e-07 5.0311534514673996e-06  -9.4241428846680533e-05 5.8998707193213190e-05 3.6824414633791425e-05  -1.1661733953385218e-04 -7.0074684321631784e-05 -3.3925694411870058e-05  -1.1956354768954964e-04 -9.5750180180452450e-05 -4.8064029082101330e-05  -9.6043378937778835e-05 1.0181795058623045e-04 6.0691331573742772e-05  -5.3197946134091733e-05 -1.2691907522548090e-04 -6.8229999114936861e-05  -1.0244285160768069e-04 1.4847319702580043e-05 1.2646835932398484e-05  -1.4677312519208435e-04 -9.0868509376868730e-06 1.2525969486476406e-06  -7.1585051498596159e-05 -9.8066177212178477e-05 -5.1410505288921379e-05  -7.0554501694161545e-05 -1.1795326701828736e-04 -6.2503636714875547e-05  -6.3212060323973522e-05 -6.7788129300105747e-05 -3.4948055967020438e-05  1.0278475569618797e-04 1.1481676502082924e-04 5.9377387207786326e-05  -1.3711564715172049e-04 -9.4796246048322401e-05 -4.6780516816326662e-05  -1.6473133092567493e-04 -6.3995179024720490e-05 -2.8482467625625735e-05  3.8818883380229020e-05 1.2087918284011606e-04 6.5491653469433066e-05  -1.0668057069477836e-05 1.1126701724230473e-04 6.2275827828043483e-05  -2.8640849250468609e-06 8.8785268242414688e-05 4.9450365040335486e-05  -5.8180647937152223e-05 4.2204336224147839e-05 2.5945665331679612e-05  -9.6427015414548236e-05 -6.9602129323580709e-05 -3.4529937358543969e-05  5.2217871865340501e-05 8.4727620220526444e-05 4.4831303832937818e-05  -1.1324262494065292e-04 -1.1017628843976021e-04 -5.6350262558146761e-05  -1.3012129870651988e-05 6.2889903304059997e-05 3.5499055459198391e-05  -3.4311742373353475e-05 2.1895252368997868e-05 1.3637614554865967e-05  -1.8812448095278224e-05 1.2623673428849370e-04 7.0942362854927189e-05  -4.7597902098485252e-05 -1.4739461377323830e-05 -6.1455515486228293e-06  -1.7471828327657742e-05 -1.1599496961865212e-04 -6.3694522259467379e-05  -9.8854326900759865e-05 -2.8893373721305492e-05 -1.1808720100939984e-05  -1.4527489630696068e-04 -5.1105124552658253e-05 -2.2156277428613698e-05  -1.7622904397871975e-04 -2.4618494197763083e-05 -6.1119245391785241e-06  -1.8932743074869749e-04 -3.5270904205641370e-05 -1.1467877685084786e-05  -1.9542444916751918e-04 -9.2247386386613419e-06 3.2646264252314150e-06  -7.8989659844980791e-05 5.0665135115765476e-05 3.1539670653540661e-05  -1.1739749045986418e-04 5.5959080416877683e-05 3.6129762585638997e-05  -2.0378650132143484e-05 -1.2791527117084835e-04 -7.0192423261885645e-05  -3.5450947320700756e-06 9.4120213894604164e-05 5.2443595713227200e-05  8.1761612301047598e-05 1.2013476275149552e-04 6.3234504753304527e-05  1.7112789571137928e-04 -2.6714579846595816e-05 -2.2188759803926314e-05  1.0129851413036108e-05 -4.8233674801494444e-05 -2.7232595087755135e-05  2.7300428716279172e-05 -1.2874665113304159e-04 -7.2701220230939422e-05  -6.0769317563800296e-05 9.2643323764178025e-05 5.4079741764622912e-05  1.8918932042617738e-04 3.5638987307588705e-05 1.1678306839600627e-05  1.2856757099490176e-04 1.0117904860538857e-04 5.0693655839595079e-05  1.5034432105841240e-04 8.9564845222414423e-05 4.3306133196047198e-05  -1.5270305623168491e-04 -8.4715307639474474e-05 -4.0510560032912104e-05  -6.1451663654596601e-05 1.2264354458670594e-04 7.0776587950745085e-05  -1.0622902590516219e-04 1.0639171643458699e-04 6.3669706304692308e-05  -1.3358282779961995e-05 -9.1899690403697979e-05 -5.0484240582330967e-05  -5.0704326123825293e-05 -2.5343288768666146e-05 -1.1903475454825692e-05  -1.0457633154569331e-04 -3.5037656712854239e-05 -1.4976717080463244e-05  4.8942096737341018e-05 1.2765161922620780e-04 6.8819693397628438e-05  1.2276005922808284e-06 -1.2883795424776116e-04 -7.1632620742586030e-05  1.0873451257844734e-04 -7.7364303274531735e-05 -4.7650189583081892e-05  1.8916961649635201e-04 3.9203063356159448e-05 1.3659285664717724e-05  9.1491096709638651e-05 -2.7776729449577435e-05 -1.9360003352594604e-05  -1.6807002583831679e-04 -7.3713282429667290e-05 -3.3738328556589129e-05  -4.0657420536412321e-05 -8.4725948159852769e-05 -4.5326673579692131e-05  1.0386642931312827e-04 6.1861508427380976e-05 2.9910015959434054e-05  -1.7243425944210735e-04 1.2540368638207173e-05 1.4369920582943335e-05  4.3179869085048374e-05 -1.0578703618310337e-04 -6.0627010589982153e-05  5.3299960887342010e-05 7.5637285037377552e-05 3.9734431477234112e-05  3.1425370744915906e-05 1.2967894340034858e-04 7.0698042162856045e-05  -1.2203803264930547e-04 7.6699279229727656e-05 4.7851844801987195e-05  1.6355182895121519e-04 -6.3270808582379677e-05 -4.2173459634458387e-05  -2.8902963208733988e-06 4.5163251339116872e-05 2.5215926716549729e-05  1.4963108659497344e-04 -5.5138791075547055e-05 -3.7057837500028069e-05  -1.8951242963551802e-04 2.7533763619424741e-05 2.3433144356999154e-05  -1.0456765271188625e-04 -1.1466164233538451e-04 -5.9214662906315181e-05  -6.5451126505224421e-05 -1.2576235181741084e-04 -6.7061307490604973e-05  1.7786114505647903e-04 6.2004833451040196e-05 2.6812996833625481e-05  -4.5837605569706517e-05 7.5166490293044410e-05 4.3728915796311817e-05  6.1795300971477165e-05 5.6204527252450195e-05 2.8573249329345926e-05  -7.2277313530620533e-05 7.0815025411766338e-07 3.4963532635621818e-06  -6.9253685038818852e-05 1.1727291813799701e-04 6.8127716498369526e-05  1.6627081882620342e-04 -5.3162133499913967e-05 -3.6674000107030211e-05  -1.7280002132938209e-05 -1.3132946290249202e-04 -7.2222310551338660e-05  -1.3160765355061800e-04 2.6173252148455041e-05 2.0191375244182512e-05  -9.2083811480986444e-05 2.1233115047500716e-05 1.5749941228493502e-05  -5.3599279586483135e-05 1.1164581666138982e-04 6.4329350670023550e-05  -1.4062838125185323e-04 -9.7008946850338806e-05 -4.7859047062993568e-05  -4.9263789675985676e-09 -1.4508527279298423e-09 -5.9457311684565219e-10  -6.9978317277049251e-05 -5.6256697581189364e-05 -2.8250931240139532e-05  1.0382672964300803e-04 2.3660779807806609e-05 8.6881214414605124e-06  -3.9807035254975473e-05 5.9027230860841189e-05 3.4503353129739898e-05  7.5956190346148581e-05 -3.7698808309836325e-05 -2.4205596806804971e-05  -5.1066890793384547e-05 1.1780550321625688e-06 2.8468443181000884e-06  -1.0581525169213280e-04 8.6670736603782495e-06 9.3579883066245324e-06  2.2590193314712493e-05 6.4264749460881573e-05 3.4734459832929935e-05  7.1758772495558691e-05 -3.3533257390475726e-05 -2.1711097630430808e-05  -5.7608642546771271e-05 -3.7212023490791878e-06 4.0575225586236982e-07  5.5230672394455061e-05 5.3120534457841678e-05 2.7141665893072151e-05  -2.1413625182941752e-05 -5.9596750732740530e-05 -3.2191519388939522e-05  1.5058109604830319e-05 -7.9099538348467309e-05 -4.4592656062612849e-05  4.4663635514188497e-05 1.8328269245082960e-05 8.2653952293722685e-06  -1.9126361776290782e-05 -5.9751083756048955e-05 -3.2375457790726531e-05  3.7890072665309369e-05 -2.4061793181240993e-06 -2.9634762999825512e-06  -6.9923466924140738e-05 5.7593024131026213e-05 3.4999455776121652e-05  -1.0642200859566550e-04 -3.3884274827034783e-05 -1.4256683744959890e-05  1.0800122960621449e-04 9.1854015972108993e-06 4.6666203193293260e-07  -1.4076839637715006e-05 4.2904596850764166e-05 2.4441307771139271e-05  2.4253677089882927e-05 8.6293211486233550e-05 4.6901640118372591e-05  9.2790995501017542e-05 4.9631213797657149e-05 2.3590573239513284e-05  9.1622182234017682e-05 7.2177221852269002e-05 3.6166884866777824e-05  -1.0388296430100243e-04 3.3071594844505076e-05 2.2833721968318177e-05  1.2621935439686071e-04 -2.4249036088902389e-05 -1.8890993707872461e-05  -2.4075419796205738e-05 5.1823661317762977e-05 2.9825816920283976e-05  -1.2350825602691924e-04 -2.9908774014721764e-05 -1.1314445825226085e-05  1.2102510289584984e-04 4.5341182608769892e-06 -2.6766270939791153e-06  8.6145313294940131e-05 -6.7816943033673953e-05 -4.1376086666058524e-05  -1.1374283706295428e-04 2.0281877817681399e-05 1.6151289862371561e-05  2.6963390925482238e-05 -3.2600002953980911e-05 -1.9269500392985136e-05  -4.3397317595918292e-05 -8.8947437918389675e-05 -4.7554427260386250e-05  -4.2336729012094191e-05 -9.0191455127699164e-05 -4.8291111431618540e-05  4.4684402945532349e-05 -7.6845420690043579e-05 -4.4612189778289179e-05  -1.0017617723888730e-04 6.7396183438142609e-05 4.1744675980525311e-05  3.7864599758329787e-05 -8.0701521092602077e-05 -4.6461786693963514e-05  -2.5548677957932174e-05 9.0629549226401977e-05 5.1448878835713146e-05  -7.1596128357545360e-05 -4.2228308048339810e-05 -2.0387570787007885e-05  1.1978070576168333e-04 4.9862561337339077e-05 2.2560417345103027e-05  1.6818751717021055e-05 4.3798244577417499e-05 2.3611430914748052e-05  4.7482366413312422e-05 2.2590188882748461e-05 1.0512226587634388e-05  </DataArray> 
</PointData> 
</Piece>
</UnstructuredGrid>
</VTKFile>