<?xml version="1.0"?>
<VTKFile type="UnstructuredGrid"  version="0.1"  >
<UnstructuredGrid>
<Piece  NumberOfPoints="201" NumberOfCells="657">
<Points>
<DataArray  type="Float64"  NumberOfComponents="3"  format="ascii">-22.97291575305348 -1.668374375521838 40.65004672246502  -8.687754143056178 -11.33772142371058 -39.46575681076271  4574.247687648052 -75.6176514643011 -61.6418873313192  7614.62651429271 -77.21075419440277 -117.3039642623471  9057.747093625703 -78.41076386311752 -201.0838509622756  9700.911371969951 -79.49656998869818 -152.0767924827459  9892.225808882595 -84.63477449071462 6.83381828120203  9703.742018032874 -84.78567184358488 158.311461443876  9058.942430923315 -84.0073072189533 199.1949597029828  7620.914827868194 -96.97285671820687 113.2140577436438  4582.397885713573 -52.25613329087711 58.951056469824  5252.521256332522 -3396.42642589699 -97.64193859158539  5464.63821455958 2629.92542846921 79.56114899078179  9548.727142783426 -2235.985114305849 -80.33816728605566  7980.664701523565 -2830.019447139253 172.7990160639861  9105.863958627317 2226.213643119249 201.2158970057266  9114.964791788863 2222.240809718038 -194.1952117266629  5908.813211885694 2916.876755515524 -109.2712140395782  2205.599267643922 -3346.049849246994 67.69658424546216  7989.057167954204 -2638.145776715031 -164.7327007280481  5603.928883760818 -5230.89353347707 -161.9467397238464  7554.860599463536 -4585.530896566404 -181.155840686017  5122.964894352904 -6503.937550880545 -193.1597536972782  6843.282316631435 -5759.698692442215 -122.1705270904641  4277.299397974962 -7291.269943959262 -103.004364778304  6022.478473894987 -6461.875730699094 22.05159206277854  3145.397772308154 -7733.226736543153 46.23185423519858  4748.213079793929 -6931.486529829367 160.3460665088587  1683.816444398046 -7831.493796982167 160.6409157787343  3298.12256626042 -6937.806807097506 189.9667843904375  -166.014986797688 -7431.575035470503 187.358010805632  7225.295861790472 -5381.879287428841 126.868196528018  8068.44653406673 2487.577706519048 176.3837925289533  7506.063809997557 4487.761793039112 194.8129423243944  8451.572210568376 3987.901930511935 117.2177060828398  1377.413471821776 -6307.311041169679 120.4482175651864  4975.228474992206 -5347.995320899168 145.1802798662341  5780.48400163039 4867.157860553269 158.498707465803  5003.898973599566 6402.819808495604 183.6877703430226  9564.146456751159 -2187.588288146054 78.3479637071331  8365.762993520029 -4417.431362549671 5.687631015077042  9161.213413600857 -2369.919440184407 -173.570754321027  2222.164736783221 3323.314062689937 -60.84081491961562  8038.593707439135 2463.337012975896 -176.0365275796539  7463.557187907614 4485.106022356582 -200.5030804507847  2131.414216179327 -7694.68547413634 -172.8550057347516  -1571.963293092011 -7853.672674194966 157.7933255764824  2609.450671441225 -5812.885083680967 -114.3407773720055  8399.283090094374 4053.463236003939 -125.0930175029228  6381.454446498254 5973.998575583155 -142.0237092703375  4927.828753790875 6336.462887045795 -189.2758162705738  3626.613801617043 7375.284239790119 -137.7767439420285  1726.085102230519 7421.968445768643 -182.6809903477867  463.6104245600282 7968.080231431016 -126.4724483744077  -1718.308535394946 7573.382260948109 -179.3406443841794  -2659.6809638993 7796.333278705388 -104.83162821421  -4801.051678365033 6909.846646751354 -172.3080579847776  -517.1062984197569 8114.253194068427 12.14202589289665  -3610.524591584733 -6923.597446439268 181.7150916002618  -4564.118017614954 -7058.907654910139 127.547277771495  -5402.305756333342 6889.400328480484 -53.66484462792965  -7211.878206622938 5539.716301641793 -131.7192799252679  -7513.556334034505 5407.285544087275 10.42663523931785  -8880.373210022715 3595.173175644647 -85.0602107612992  -8968.48904073381 3412.419951827097 78.29189220528681  -8368.471335587694 3646.399506184617 -187.0368804511767  -7467.151865365035 5170.96491612662 157.1707271990333  -9501.862114204521 1575.966306413098 -151.2575721849117  -8758.590080533364 2987.001860336565 183.5030692915707  -8912.957606382544 1133.58675131889 -196.161438045555  -9382.483112148344 -1056.547832014681 -193.3647838144427  -6982.916041646462 4776.816448415599 185.6790651959011  -2027.472661406847 -4752.387213109224 76.10153577821191  -6462.653268499635 -5667.422377250974 179.9034531692377  -8429.352259140227 -1621.978581592512 -178.3776771015937  -8352.145547007993 -3555.69876849025 -189.2938461266671  -9632.272314710764 1020.451347212695 137.3579940789702  -3906.472559636354 6417.116357128571 -178.3413963681897  -8091.52840030519 2189.04217657061 166.1674950427133  2625.706942105811 6573.306679746221 163.868983544098  -9256.982501069771 -2712.40436056582 -95.10417906748746  -7485.813965962978 774.828705117917 -118.8891935589765  -5774.155411230401 4190.033461293901 122.6831604007169  -6696.80330753544 -4269.491601848736 -170.9247760234482  -6328.023666219618 -5680.717678615248 -187.2172289277132  -5250.658705954597 6551.977637071166 184.8322443293668  -2586.071342694206 -7846.691774008859 36.89243680490517  -6519.898272474872 776.2382883603594 83.27819644695066  -8431.236051978203 -857.7078483711987 165.6223573056159  -4026.650765668121 -6275.125895189401 -176.3926828284876  -3643.044110261595 -7218.369318995164 -177.0256634348965  -3994.764448341491 -4613.006850194104 -106.8831359397649  5144.556668233641 6915.03225096641 -14.00076363712122  -6920.991376472573 -5737.577348063674 88.08176130550659  -8473.062650974383 -3947.245811423953 152.698335107542  1960.178892529104 7548.737323125172 179.4435515790956  -748.9361756139946 7282.25550848335 175.5521558564217  -261.5366685075444 6199.137446806802 129.1809978735457  -3865.718776067797 3037.20131020929 72.28283253149583  -5464.953152493506 -5252.706465261876 166.0708378300548  2872.734908993813 6469.465070185396 -159.5072464454223  -5720.279121933579 -6516.926512720445 -112.4555673328951  -957.3864264843759 5611.310278193883 -101.6677812017352  -2416.518000332703 2742.638606890595 -60.99183806075759  -1174.354572777235 7891.869323086055 147.7922594010097  -3201.895696128917 -1960.023378910592 54.04512678818764  -839.5264430709634 -7494.643915363747 -181.4865662798356  -6111.506520557286 -2686.702639294734 107.3152216918923  -7955.155556961915 -3595.196741414794 184.0220965708212  -9229.262150937277 -1591.489690360859 201.8462632908425  -9518.216098976607 -1970.187280191414 82.03679620872825  -9806.42839189036 -193.4755630401979 -53.16927287971681  -4960.985888672134 4650.029415117588 -124.0295466758056  -6764.379644855105 4622.205118877431 -176.4465842545998  -938.7095755591583 -7949.196334428851 -147.0066246359337  -388.2434116698894 7066.924304675539 -171.2801878417372  4122.429127374601 7233.520129850142 124.2742392944554  9142.168760149216 -2270.52200986208 174.9641358247046  669.6629921875306 -3521.364393654608 -55.97061942386529  1540.512446622084 -8036.007929100125 -80.59364488179439  -3651.62941157127 6329.831140986347 161.253845154681  9550.425257300978 1953.697210562545 -84.57332935369507  6540.681379082247 5889.97822622545 130.0533435007131  7526.884702743627 5197.768811641204 -7.215601488791915  -7806.082695842711 -4845.869930641062 -124.0992013271473  -3339.842347545386 7701.149994744441 36.832898603183  -5603.20785740037 6731.244227899464 95.24898323179241  -734.1725794955761 -6384.313776862199 -126.5860449423187  -3492.312417908696 -1397.024679166715 -55.43822814496699  -6602.960386041254 -1925.758590695356 -104.7949560792191  2347.299961171884 7885.974517340214 -24.41224051197808  210.1096011575983 -8140.930747218531 62.11851970128039  6025.500713731764 -5728.111388003674 187.0059825531818  9546.689398267856 1981.184333738883 83.50601372066161  5798.227332363971 -2993.364265278947 110.8080492526097  -8489.734363919822 -4252.937026990556 14.05933600188132  -2249.705670151348 -6549.603413429254 147.0667285201909  5954.823230951753 4729.285484709249 -162.2998180812336  -9209.435129013318 771.1106777700073 201.8056253895158  2534.065970828635 -7033.598069421364 -180.446724801902  3284.996374777073 5219.04388418738 106.5249460061656  1456.972561358151 7946.811692636647 103.3373363902764  -6673.192795893719 5586.587358693907 -186.1340022116169  8500.041305742894 -4013.233389097428 -121.7295582832984  -204.995678622344 3242.745853964894 51.85807329199621  8040.943705340673 -4129.003989601637 172.8717276904193  -9560.825198384742 2021.299066476562 -13.05327615339322  -5203.943154639705 -6899.426273120671 -0.9713161541258393  -3242.096904669729 -7628.423046211384 -86.36494579825457  8930.705823588516 3442.834337953623 -4.280797344423272  -2947.020918882367 5390.018164882242 111.1502293784926  3756.463907380886 4860.722647952463 -112.8621401461906  -4897.165832354353 957.7938726046383 -58.84994051804205  -3792.181372138846 7392.850134803258 146.4942954447874  8660.270008711981 -3754.372111012637 126.878290501772  -744.4839854393016 -8127.443677461443 -47.8544430020595  -7754.346418171983 2693.038627182231 -147.0217287605486  -5882.799645508492 2573.660652720946 -95.7659868355324  -3075.798443342489 7214.827941634838 185.8117106957275  -7068.80496496554 -5673.690394246529 -30.18351206391508  -4.202724323440538 -7.629462630725906 1.111611102536465  -4387.681151345225 -4326.891549615279 0.444966019486559  6593.372695413345 1655.303040075381 -4.132446218813493  -2668.673806791414 4739.152221474636 21.36984935554037  4939.710520584651 -3376.187037228138 24.9044163643401  -3563.079105715089 590.0483059594807 -21.59650030626844  -6736.976905672411 927.5655080889944 -0.8656607396028666  1358.947461389489 5288.566300762746 -21.11636724013221  4755.533709107505 -2728.438337689719 -20.62727299396722  -3924.552845946967 -528.6964887636904 25.60866884622452  3589.358204950088 3997.007813328687 27.97924467554634  -1368.955344394916 -4605.328923650579 -34.46019025014347  1061.076577824586 -6145.160836709676 -0.08226413554231218  3020.62752745421 1880.237402940751 -27.10732219420802 
[...]
<PointData  Vectors="Forcing"> 
<DataArray  type="Float64"  Name="Forcing"  NumberOfComponents="3" format="ascii">-5.6976251712947821e-07 -2.0361700317741720e-08 -7.2630179017917668e-06  -2.3637068529167327e-07 -3.5296645058928622e-07 2.0385108320259374e-05  1.1058824828092259e-04 -3.0839970983300107e-06 9.8358590316863536e-06  1.8398333231051534e-04 -3.7118677986688683e-06 1.4558327280914399e-05  2.1979491152887722e-04 -3.2700837784932693e-06 4.3424090303200928e-05  2.2383353605162108e-04 -3.5765618422807656e-06 4.5656188941026207e-05  2.2616336593514705e-04 -3.9224042658843156e-06 -1.3032896557144760e-05  2.3377986839448762e-04 -4.3624665737838417e-06 2.4726629646662871e-06  2.1786296996113123e-04 -4.0496500656433300e-06 3.1139610293418703e-06  1.8413133433541995e-04 -3.9596977229961442e-06 -7.3126425024160993e-06  1.1087902093461784e-04 -2.3732164656871050e-06 -4.6081583125921308e-06  1.2692533713201583e-04 -8.3988922588515874e-05 4.4441055904354595e-05  1.3300151710590800e-04 6.2379944195000418e-05 -3.9423666626576584e-05  2.1882325007314791e-04 -5.2297178817810620e-05 2.3174658676163636e-05  1.9246733782052666e-04 -7.0321885263012113e-05 -2.9280128073633141e-05  2.1806856686619892e-04 5.1460105381201783e-05 -6.1459680630847143e-05  2.1827112471344045e-04 5.1211637301036984e-05 4.1202111934049848e-05  1.4326603786151120e-04 6.9031888938422516e-05 1.1898586109138593e-05  5.2968961005082639e-05 -8.2131385407041544e-05 -2.9558683305863796e-05  1.9255771180400530e-04 -6.5549635635726974e-05 2.6568313498997765e-05  1.3445700030460876e-04 -1.2769243250637389e-04 2.9538608897286098e-05  1.8053982540237957e-04 -1.1138106421676069e-04 3.2818866266745853e-05  1.2262194171367327e-04 -1.5797476595284324e-04 4.5937333845328251e-05  1.5376812829867811e-04 -1.2713610102149013e-04 4.6391377895131898e-05  9.5919745739548863e-05 -1.6059590894369015e-04 3.1111574755166672e-05  1.2978207150163390e-04 -1.3335569146218337e-04 -1.5711438121625170e-05  6.8926794865509699e-05 -1.6623204636608547e-04 -1.2955320485463299e-05  1.0903444061076600e-04 -1.5956813048324366e-04 -5.8081921786076317e-05  3.8702872332544642e-05 -1.8229616228400579e-04 -5.0387661622854469e-05  7.9013204506699170e-05 -1.6969694493262517e-04 -4.5961251036527546e-05  -5.3422728613071259e-06 -1.7889580706734247e-04 -2.3698167670780312e-05  1.6755086697630076e-04 -1.2481943996298393e-04 -4.4312801571923039e-05  1.9445712797463394e-04 5.5842967475020878e-05 1.2246057962970170e-05  1.8171574453234484e-04 1.0256769042122613e-04 7.1218092246514133e-05  1.8900419990579444e-04 8.3107234292769094e-05 -6.7861406967614847e-05  3.1964125183393234e-05 -1.5263269450379441e-04 -2.0640677684546116e-05  1.1909284999437395e-04 -1.3051620264422847e-04 -1.7671273093548010e-05  1.3986327916408410e-04 1.2067738344378289e-04 -1.9527881352665350e-06  1.2082857924956208e-04 1.5294246450587860e-04 -5.2297016694289225e-05  2.4166277694826610e-04 -5.4429913085094544e-05 -7.5183882893872285e-05  1.8419664620520734e-04 -9.4255523062563705e-05 -3.5112652984640812e-06  2.2036238493423411e-04 -5.8850708975310447e-05 3.0350677540825520e-05  5.4394038949383671e-05 7.9883233130486630e-05 1.2459868106209760e-07  1.9520301557568023e-04 5.8073085379894342e-05 3.0896788963141282e-05  1.7999227553247281e-04 1.0602244454845033e-04 3.9374016579089256e-05  4.9322803006865808e-05 -1.8070970338236237e-04 6.3116864982819309e-05  -3.8377794638659312e-05 -1.8203399389665284e-04 -5.9410467180169654e-05  6.1938818413499774e-05 -1.4172023796567301e-04 2.5251262913815267e-05  1.9598112740437231e-04 9.0624946359540989e-05 3.0009525245679727e-05  1.4847449755370448e-04 1.3360984164591000e-04 4.8157048957283851e-05  1.1985171806464696e-04 1.5122308938439252e-04 4.0498308565878128e-05  8.6251043115541544e-05 1.6931649006194440e-04 4.8744405945827903e-05  4.3008808303170835e-05 1.7811741231771962e-04 3.8517957382948232e-05  1.1247165975410740e-05 1.7937495675388507e-04 5.4732650288345901e-05  -4.0234904667110872e-05 1.8272175238857855e-04 4.6082906651099375e-05  -5.9062581798746005e-05 1.7041047062953972e-04 4.3585298185762801e-05  -1.1284897019209294e-04 1.6323811449796115e-04 5.1459519346819540e-05  -1.0371526105590424e-05 1.6899799513406773e-04 -3.2793278755135879e-06  -8.8335651985342749e-05 -1.6700459229876448e-04 -3.4320361668764737e-05  -1.0694314265125353e-04 -1.6045282299644847e-04 -4.7638345000816605e-05  -1.2045675162457024e-04 1.4979317735537098e-04 2.5020278176504442e-05  -1.6487729209854697e-04 1.2594894029631081e-04 4.3660879091897562e-05  -1.5716006424472092e-04 1.0804537911964417e-04 -1.5091442478806435e-05  -2.0166609673396966e-04 8.1096105043206539e-05 2.2324466472180678e-05  -2.0285099261908691e-04 7.6892606597082984e-05 -1.8367146393040118e-05  -2.0013786467633016e-04 8.8853765119339492e-05 7.0435291158120643e-05  -1.7390486390130524e-04 1.2092761412078759e-04 -6.0839960461433772e-05  -2.3157342206582074e-04 4.0322065403097690e-05 -3.4057697267295710e-05  -2.0793709924573459e-04 7.2361006252821524e-05 -6.4771197367673305e-05  -2.1586478708503744e-04 2.9938957467669006e-05 9.1966294970510091e-06  -2.2414016271638172e-04 -2.4946881439133272e-05 5.6530869588735828e-06  -1.6810444859186488e-04 1.1674751662467927e-04 -3.4950251374347576e-05  -4.9789630529142286e-05 -1.1483616361831423e-04 -2.1508546339522615e-05  -1.5614713744314899e-04 -1.3476721716058931e-04 -3.0017059271403114e-05  -2.0284482431429958e-04 -3.7326205794659303e-05 -5.1469968788703407e-06  -2.0152196741257640e-04 -8.4407293716730686e-05 4.5237259691227229e-05  -2.2585333780677835e-04 2.5871270610648426e-05 -2.5648904759359018e-05  -9.3357861346161165e-05 1.5682385280353650e-04 2.9306677989640396e-05  -1.9682168374711038e-04 5.5399193656191150e-05 -6.0183849097163284e-05  6.4491058363125981e-05 1.5715373530413335e-04 -1.0833959415978473e-05  -2.0558043007929273e-04 -5.6401654547362340e-05 4.6121133551320964e-05  -1.8075373766793463e-04 2.0610892426865927e-05 1.9191084998125861e-05  -1.3890588704347344e-04 1.0239998610013340e-04 -1.6295185025626099e-05  -1.6279731981445257e-04 -1.0263813871680547e-04 4.0509305135358076e-05  -1.5314958862798047e-04 -1.3511283253166725e-04 2.8794286047910801e-05  -1.2489021417480691e-04 1.5825538522880407e-04 -4.6932846522481125e-05  -5.8319718646149447e-05 -1.6619860233969022e-04 -1.8556325722284847e-05  -1.5742222244587360e-04 2.0564671066966923e-05 -1.3075145231041026e-05  -2.0346357024563194e-04 -1.8880466452569094e-05 -8.4064909855710295e-06  -9.8028037219758705e-05 -1.5038917427433938e-04 1.1168156616815498e-05  -8.8437825140089482e-05 -1.7274054149193417e-04 4.2805956203294558e-05  -9.7075963144493130e-05 -1.0969051982344292e-04 -4.9405092297881739e-05  1.1253541021935513e-04 1.4168452733410051e-04 8.9662845602137574e-07  -1.6056785128904300e-04 -1.2776847084691360e-04 -2.5170403441849767e-05  -1.9794896271191389e-04 -8.8277860368536637e-05 -5.9746185418210340e-05  4.8075597460782782e-05 1.8116941885869641e-04 -4.1108888590750338e-05  -1.6777459304333047e-05 1.7657963844370768e-04 -2.8141361848631473e-05  -5.1389261840685582e-06 1.5167325329907606e-04 -5.6263103576385302e-05  -9.2724825783619709e-05 7.4475730792527086e-05 1.1794319052294022e-06  -1.3261742490952970e-04 -1.2549082783197814e-04 -6.5357106781293215e-06  7.0736042280771571e-05 1.5572930062975683e-04 8.1195449247413620e-06  -1.3392596002855046e-04 -1.4740689376952019e-04 4.3008284042712486e-05  -2.2035545262816247e-05 1.3612529758140105e-04 1.3889790731710082e-05  -5.7759261053477209e-05 6.7250513176461972e-05 3.2214629401735036e-05  -2.6487645273790105e-05 1.8433253166857800e-04 -4.4648015237463096e-05  -7.7964832376921066e-05 -4.6621020473359281e-05 -2.0993738913946344e-05  -2.1637910490403490e-05 -1.8092940209410305e-04 2.7505440243769142e-05  -1.4953955232713823e-04 -6.4640212133511011e-05 -8.0079182633325974e-05  -1.9293015087136397e-04 -8.5418004350511245e-05 -2.5997933378464391e-05  -2.2269861994620496e-04 -3.7396862745864339e-05 -3.2734378183781039e-05  -2.0687890110248353e-04 -4.0200394309356957e-05 -3.6843250931723221e-05  -2.3224474989457170e-04 -2.8094806599148220e-06 5.5999543928367630e-06  -1.2000839415742532e-04 1.1596950961195092e-04 4.5303610241405879e-05  -1.6091003313170165e-04 1.0992160528791870e-04 -4.7700082654773970e-05  -2.3408550446986487e-05 -1.8301075224081705e-04 5.2185053360094442e-05  -8.4687210935504199e-06 1.7161267527629102e-04 4.2144007422474414e-05  9.5612778414112606e-05 1.6123373878238376e-04 -5.0374907905525272e-05  2.1935722564422758e-04 -5.6693586177490703e-05 -1.8059495404786195e-05  1.4731650144631136e-05 -8.6146358122839162e-05 -1.5561241950295623e-05  3.3823704479562940e-05 -1.7826813915160179e-04 2.8370322298431580e-05  -8.7005051673591917e-05 1.5347374341615944e-04 -1.3776065881125140e-05  2.1058637395380802e-04 3.9431570063545972e-05 2.8244462018624581e-05  1.5098768319328273e-04 1.2958890869509587e-04 -5.6833331039624528e-05  1.6088762201699861e-04 1.0101086552514038e-04 2.6137474315156621e-06  -1.7908523415022479e-04 -1.0647417512626002e-04 4.7099654514515981e-05  -7.2576038688586017e-05 1.6193247636957155e-04 -1.6899968522052636e-05  -1.2261505741361880e-04 1.4135815353584025e-04 -4.8148444488126515e-05  -1.9085588975570715e-05 -1.5540844157355444e-04 6.0123119517238717e-05  -8.4925851810985575e-05 -3.2843009587051500e-05 2.7347003770130090e-05  -1.6276164949221073e-04 -4.6138299386637224e-05 3.7223387525943870e-05  5.4000963122580052e-05 1.7325990223351174e-04 1.3250167938780431e-05  3.6673451684270054e-06 -1.7807161491016618e-04 -3.0158778767692130e-05  1.4492294221709389e-04 -1.3972587621844849e-04 -3.8036080745413041e-05  2.0809392464207410e-04 3.9316691455130797e-05 -3.1854883700090741e-05  1.3968650187653239e-04 -7.3920503627782243e-05 -1.9370144376683815e-05  -1.9167928138259593e-04 -9.1531183627650495e-05 -3.5352012719212827e-06  -5.6141042299625008e-05 -1.5920455603722318e-04 -6.5320636817863895e-05  1.4518106695737983e-04 1.1337585763115295e-04 2.4531827796067658e-05  -2.2203584673429855e-04 2.0768206392744680e-05 -1.5142356409613961e-05  6.0405576700664710e-05 -1.7247918373020711e-04 5.3852756448697103e-05  8.0636208618804474e-05 1.2548828208389600e-04 -1.9996537841852824e-05  3.4116078502697022e-05 1.7060017312593581e-04 -5.6319300184697507e-05  -1.6017466867816735e-04 1.3629369380806111e-04 4.7172546933399559e-05  1.9486234086971062e-04 -9.1516742972946711e-05 3.3687259739093404e-05  -4.1616152102869790e-06 7.8317906420706629e-05 -4.9397040819074833e-06  1.9195833509523725e-04 -1.0034904547657938e-04 -5.8430972262597236e-05  -2.1669388200951987e-04 4.7509066907811758e-05 2.3833642878539930e-05  -1.1765980375879221e-04 -1.4758320955354331e-04 -1.4737410837782907e-05  -7.3556181583251187e-05 -1.6434646773047588e-04 4.4226550941599545e-05  2.0316032385193466e-04 7.3336415140303323e-05 -5.0260799312836207e-06  -7.0355467887128916e-05 1.3164843190035974e-04 -2.3397389872048270e-05  9.3875802973913264e-05 1.2069186639316099e-04 1.4921912516064684e-04  -1.1797089352722889e-04 2.4170555239505859e-05 6.2309633030666739e-06  -8.8199677177865595e-05 1.7242960545727284e-04 -3.5076592615875054e-05  1.9974584064530473e-04 -8.6422433177846722e-05 -3.2773765714135638e-05  -1.7506857585572988e-05 -1.7518828334418230e-04 2.3193981415888295e-05  -1.8703213918568976e-04 6.6729154029615334e-05 1.7465138524521175e-05  -1.4259927015454786e-04 6.4648969873113240e-05 5.1950884881873954e-05  -7.2386844442666570e-05 1.7223845047358431e-04 -5.1718955335338461e-05  -1.5479566630178756e-04 -1.1547625725339388e-04 1.7383804973506742e-05  -9.3831314275385766e-08 -1.6699429927649153e-07 6.3022893966757949e-06  -1.0249081781439673e-04 -9.7902188938200357e-05 1.3865397474707704e-06  1.5249290135048123e-04 3.6607308088052686e-05 -1.0197334317688915e-05  -6.2811952549361483e-05 1.1382523512485905e-04 -2.2253234629621384e-05  1.1678275628166920e-04 -8.0996736842730313e-05 -2.2502151149352219e-05  -8.5749395325564759e-05 1.4765788686508885e-05 1.2953032627618986e-05  -1.5769457092591383e-04 2.3150018967897653e-05 -2.6730764807865841e-06  3.3381456968046469e-05 1.2455438980689981e-04 3.0532179719947459e-05  1.1380600775924422e-04 -6.6789708932800973e-05 1.8889365680255050e-05  -9.4594911074198312e-05 -1.1727865458914015e-05 -1.7326633861387775e-05  8.6873983269880671e-05 9.5209412734319286e-05 -2.2058810989411021e-05  -3.3799726247368341e-05 -1.1045620903173104e-04 1.6906658664982531e-05  2.3435049626510802e-05 -1.4160670239228638e-04 4.0173784222844266e-06  7.3510062949133705e-05 4.4752972131400119e-05 2.1349321004730611e-05  -2.8644767874730539e-05 -1.2194959318948868e-04 -2.1477543508948047e-05  6.5273935627279466e-05 -1.8625799781710079e-05 -2.5345256443552641e-05  -1.0573897321980574e-04 1.1517790625464362e-04 2.3511513809972016e-05  -1.5681603863032962e-04 -5.0377996171839207e-05 2.6292165829342528e-05  1.6579369995902582e-04 2.8147706846149443e-06 -1.1574108980874355e-05  -2.3892469597220624e-05 8.1763913579278372e-05 -1.9832112169803210e-05  3.1720245301255147e-05 1.4333958608321644e-04 -3.1584249048504694e-05  1.3656758029395748e-04 8.9733786929931377e-05 3.6736371370653835e-05  1.2213887760929417e-04 1.1015337513907387e-04 4.2832933707872202e-06  -1.5403674299748889e-04 6.4010712236405398e-05 -3.3871052390557321e-05  1.7557358146569893e-04 -4.7177934877527544e-05 -4.9544471518180585e-06  -3.9886436969254357e-05 1.1376027190486151e-04 2.6604683307219527e-05  -1.7133438922816891e-04 -4.6921940796059289e-05 -3.5725145017132100e-05  1.7618951638903862e-04 4.8217586664231657e-06 3.5415309396725619e-05  1.1547260219296171e-04 -1.1299610485815000e-04 1.9704240240868563e-05  -1.6716441303741541e-04 5.0596101642667781e-05 2.8788006616029528e-05  4.5126559535314716e-05 -6.1576517771856404e-05 2.3713620147988834e-05  -5.9299193406331921e-05 -1.4363874241440645e-04 4.2426391663706787e-05  -5.5548313086243296e-05 -1.4663209842284263e-04 -4.2992396553256105e-05  6.4415403221365015e-05 -1.4113688760223781e-04 -4.3301637716281506e-05  -1.3133392309552485e-04 1.0889462132123560e-04 -1.4163466546994058e-05  5.6943168910544927e-05 -1.4350164898487553e-04 4.2805078367075227e-05  -3.6599798020993186e-05 1.4867381820951267e-04 1.0264562314656766e-05  -1.1421683772518919e-04 -7.0223532203628181e-05 2.9248711021971527e-05  1.6262825009768050e-04 7.0009356017154261e-05 -3.2741942334381605e-05  2.6415652269321807e-05 8.7762989951875578e-05 -9.5030660241916735e-06  7.7466643545334691e-05 4.6907063645503889e-05 9.2442415443335000e-06  </DataArray> 
</PointData> 
</Piece>
</UnstructuredGrid>
</VTKFile>