<?xml version="1.0"?>
<VTKFile type="UnstructuredGrid"  version="0.1"  >
<UnstructuredGrid>
<Piece  NumberOfPoints="201" NumberOfCells="657">
<Points>
<DataArray  type="Float64"  NumberOfComponents="3"  format="ascii">-34.34802943624504 2.054754776101034 175.6719100994555  -20.36317442611282 -1.923741771957609 -178.0389301334218  5128.653442553737 -38.55668990906518 -217.7972917067927  8583.911759506393 -54.09022183922343 -294.7853473253039  10370.00534000222 -60.02009407675181 -354.2582064585964  11243.20408308947 -58.77584940345776 -237.6115541197254  11511.64821443079 -59.37492498532656 3.027381631557546  11245.0105817007 -61.59635970871739 238.9944987934129  10369.90546970927 -62.10529169370777 350.8667747726852  8589.016844106185 -61.74794942429058 291.732813031919  5132.965601305922 -26.87651490294632 213.8514164424249  6000.678533889767 -2517.974946719354 -262.3212972433344  6123.616013267185 1927.394687239609 245.0481302711725  11096.12516827824 -1926.057550262066 -120.0168386562113  9147.34712441468 -2252.294449661782 335.8220130523991  10510.95516457458 1895.565688006734 300.8942201570817  10505.45928501936 1894.920983153602 -300.5807666021435  6646.198162093916 2177.435616308138 -272.4380223274176  2528.104208438695 -2377.334538559393 213.4629702221098  9150.669419946766 -2095.760489968267 -329.3827487039313  6509.965306534754 -4056.971052424659 -309.1585961675571  8804.451225373823 -3754.345474335193 -295.6692021057327  6069.198911291163 -5263.615698574761 -272.3257302425918  8085.803001188057 -4813.240719541385 -163.1912876118067  5132.371227895084 -6002.679254498698 -128.3979323510283  7162.23660957947 -5399.001830607231 34.52068183907897  3811.664099815519 -6349.65544670476 60.06479030261125  5663.681919600595 -5672.725002047827 216.1365289486736  2064.832662540524 -6316.067564751866 210.9684859924317  3924.501213332334 -5459.519503365699 292.1087036867281  -136.5329655650793 -5825.18916333465 282.465128647063  8501.697456935093 -4490.762877429775 191.8410609141024  9173.706726344979 1996.058242569412 335.3309395700132  8663.862050359941 3703.263529570073 304.4633626918086  9834.025426069853 3427.64240999569 168.0453682812802  1647.772807249668 -4728.146341888971 263.7771017900099  5776.53486072434 -4089.539419261119 292.6314547100661  6595.369086136378 3782.039617195089 306.7374533943661  5801.964411050833 5155.117004177303 277.9956348321011  11115.83563202717 -1881.253392125589 117.7551083471774  9807.21566842044 -3756.236335879005 10.30059567320877  10579.31175294836 -1995.20389426291 -286.1835830172918  2463.797014694651 2359.009426540816 -205.3479384373348  9127.017949259382 1957.688267987455 -336.66018304057  8616.922016351788 3694.712843720681 -309.2406137400693  2590.947748140039 -6183.229978365614 -230.6525870006981  -1802.700191762585 -6355.526199292814 200.2980559030249  3050.070593957194 -4342.368765157093 -261.1519313152919  9774.909502438657 3475.79728127509 -177.1648110498431  7451.441038496181 4983.953348576871 -192.529335722172  5692.612303387284 5069.575809623051 -289.2564597844217  4229.89793371547 6015.410485708278 -186.7829051565549  1959.11653380767 5893.637821823258 -270.0470182109452  481.036176392067 6484.324382961789 -167.2660863580794  -2094.781739075262 6044.521294682789 -259.1860146758885  -3225.904220498715 6383.48841943581 -134.607590659976  -5701.67465767516 5634.565743464733 -236.0357617318542  -682.7657690084123 6651.418896612993 12.63322989146367  -4169.376827906567 -5531.155295083509 279.060260302939  -5335.144603078353 -5831.610549303054 174.5309484623871  -6428.068740501183 5720.375610849761 -70.39386749260609  -8482.148359359908 4605.616343040771 -184.1941501506542  -8850.114359255016 4547.26133142819 15.80599256404703  -10370.06087102989 3065.005302971496 -127.1736147819267  -10479.24182692717 2915.328389265688 115.1789927344992  -9712.109273007934 3008.275493233729 -300.794661678836  -8755.210257988268 4292.900400372137 226.9530511065915  -11039.27336289626 1339.314361005107 -229.8461962384644  -10155.28448946409 2486.58684785263 295.5180007119774  -10214.08498376562 919.5571082193291 -348.9207163139443  -10820.89171542623 -893.6232879935558 -303.2930084521591  -8091.393042720001 3805.162651246424 318.8988572658824  -2244.621121179654 -3466.247684944539 221.8941676414942  -7472.354576947087 -4661.304897399621 271.0946289791599  -9571.888156280875 -1299.116920094715 -341.9822439256443  -9599.631516746034 -2951.840136329025 -303.3789247321284  -11197.43147789598 872.9653487847809 203.5788108485445  -4600.79673021366 5006.663635343695 -301.022130698762  -9234.315893079191 1725.002548009182 334.605797409967  2979.002694017738 5061.05857069142 289.7260143102128  -10736.77671737 -2337.896428377993 -137.6724089010906  -8447.871979331996 602.630958406656 -296.8801282597185  -6620.905449314482 3144.570448406078 286.3645072314061  -7620.784743330864 -3361.567021561336 -318.9436027650854  -7315.921174302246 -4665.787132871297 -279.0206811893171  -6205.717516938695 5304.856042359421 268.1800260430601  -3019.563254969025 -6455.34590800023 42.5430493569339  -7335.798280562472 581.8199400968841 254.6804160734823  -9550.752035036081 -678.9931199092949 338.2852407564798  -4610.697753053904 -4922.994064647477 -299.3751471950808  -4238.409843347479 -5863.592228735318 -243.4847657173951  -4483.389969162862 -3424.083496936247 -260.3260045245729  6022.626913851511 5746.786886967015 -18.56355594679703  -8055.373764848056 -4838.406429222467 125.884232696149  -9789.426475931443 -3341.472830497144 225.112770207938  2241.62611539158 6043.01732870857 251.4723188901274  -945.6916154684351 5704.451905834597 278.6280227226289  -370.4107111487592 4658.706963668071 266.8938191592007  -4406.393543733236 2183.928011282399 229.2915963246501  -6226.765044488745 -4103.224475936901 308.1666278954777  3274.45014857137 4972.617460796399 -286.2650887666342  -6680.812766093843 -5439.687261721482 -148.5602053654142  -1163.833106732715 4138.060388053447 -247.01691921596  -2766.419360437414 1942.744640936657 -209.2057266085216  -1460.431019259323 6387.111229422866 197.1853946104  -3574.04873558658 -1372.320164828029 198.7912735761248  -930.4171227612318 -5891.386524872531 -277.1857046326439  -6868.909722058761 -2003.928485299386 273.9009626630919  -9086.254591830511 -2913.524948485457 321.3704542446341  -10634.19616790916 -1341.670152294682 313.1332787739572  -11054.97887366578 -1706.053377968445 115.8743483370271  -11412.47400825362 -170.8371366110204 -76.41213233881757  -5708.214491325386 3488.193991999939 -282.3817071825265  -7816.021423787636 3631.663846415815 -321.1568441476171  -1052.04531328253 -6425.763970161051 -196.0543796477345  -524.1104677533183 5483.572633655381 -286.5913434401602  4815.722640982845 5934.392158987785 165.7706014099758  10553.16879091501 -1912.024760011165 292.7059760648895  801.0376017083214 -2496.985464089954 -200.3179476476534  1903.090674261228 -6556.9144526342 -99.76234631096027  -4289.957549194202 4880.018522367982 291.9158132559559  11095.04702270782 1712.713856713021 -124.6194722498664  7638.836882131632 4929.569591082885 177.8810084956602  8801.500848928285 4436.420069399312 -9.265296398534836  -9050.494655041291 -4098.380830640926 -177.9009354968996  -4032.191217607116 6343.58608944397 48.88304167413299  -6657.773693104165 5579.380241638877 126.4470841087034  -784.648849258661 -4802.078849936646 -263.9944276575853  -3907.238567985054 -980.4631468514613 -205.0959061752878  -7408.049532246727 -1436.032959700724 -276.0264326168486  2727.3852882581 6465.388764959805 -32.68420680904595  317.8665851232824 -6649.433040624466 72.01529740668887  7069.568428344559 -4597.238237997569 300.85561186915  11096.3102384055 1735.360617628821 112.7080556086439  6612.397370778135 -2232.21712088861 276.4210121372183  -9844.894393323031 -3646.33369835582 20.13975501776191  -2544.105094472616 -5024.068378018049 276.6774524288014  6783.221654437724 3670.720037563523 -307.2163007992098  -10600.23125744677 642.6776318778561 335.2672656339004  3026.42708149925 -5482.936709992493 -286.2530775291145  3698.136759981606 3870.632105882652 256.4209931017606  1665.13443985492 6486.200740123218 130.7593333202761  -7805.59294472837 4534.445807968491 -284.0441775238938  9926.11624632422 -3394.098372572115 -188.6957209590005  -275.6367860515351 2300.641554943207 192.0558244207093  9352.467325006308 -3402.522763826158 286.1162071611963  -11157.80119554992 1741.81439089974 -20.91626805834808  -6098.661219439872 -5766.500834849579 3.799793988040671  -3793.63408825154 -6283.544346136575 -109.939882902846  10397.12161111299 3003.62864016811 -6.57808916889549  -3432.971985288676 4010.350639566078 259.4184547461799  4233.842206313718 3609.689200252281 -261.2377004203363  -5509.862840534449 682.2058288974245 -217.6908210557441  -4544.048095910849 6034.627244748143 197.3205514576987  10096.36514106872 -3174.138258382377 198.456526455669  -823.9210764107605 -6641.150174089769 -65.28474442637463  -8836.994018265355 2084.91549184295 -317.388915198524  -6678.440255710429 1892.278126491609 -264.8176952402006  -3679.256718746607 5751.886301137071 274.345129393715  -8235.798475729995 -4808.323539311118 -38.77987861061197  -17.15253986793451 0.6834895714876087 -0.1800791063541558  -4921.088699959116 -3209.542975695263 5.281703368499388  7392.43891322058 1227.878247591905 -2.985313801372455  -3089.979656927816 3464.85549251539 58.88582877960082  5635.711885894989 -2475.525702502763 59.00883160055762  -4007.270213928592 413.8006823488878 -89.68740467128811  -7579.097796767747 690.8943981415665 -0.05430328180845551  1481.74130222097 3863.820238398344 -51.85578678489907  5398.266704103291 -1980.810022463309 -74.54930272602091  -4395.747191888581 -368.6407297316877 92.64839721637604  4009.59500971985 2904.734014274347 88.8199430035083  -1502.559387329256 -3344.370891536886 -95.41950784382244  1273.62355896588 -4576.78474944396 0.5078497367293773  3366.476406792834 1331.423165115721 -100.7561532134665  -1249.95768034571
[...]
<PointData  Vectors="Coriolis"> 
<DataArray  type="Float64"  Name="Coriolis"  NumberOfComponents="3" format="ascii">1.0299878223329788e-09 7.1593928058784882e-09 0.0000000000000000e+00  2.4082794557213450e-10 5.4588601549583104e-09 0.0000000000000000e+00  -8.9493322142491237e-09 -5.4923039391548358e-07 0.0000000000000000e+00  -1.4541076573297131e-08 -8.3793661044024472e-07 0.0000000000000000e+00  -1.6575938972769363e-08 -9.0733374655130282e-07 0.0000000000000000e+00  -1.6132060387859607e-08 -9.1750555944329114e-07 0.0000000000000000e+00  -1.5624313526955209e-08 -9.1794665423106166e-07 0.0000000000000000e+00  -1.5897937389100891e-08 -9.1765207692635581e-07 0.0000000000000000e+00  -1.6525863978954939e-08 -9.0729829658235457e-07 0.0000000000000000e+00  -1.5371627184503953e-08 -8.3979900064514335e-07 0.0000000000000000e+00  -7.9737802259677606e-09 -5.4941444078139484e-07 0.0000000000000000e+00  -5.8995512364640280e-09 -6.0887931185560505e-07 0.0000000000000000e+00  -1.0223610087719702e-08 -6.3647002173132682e-07 0.0000000000000000e+00  -6.7011390552540209e-09 -9.0802209322753075e-07 0.0000000000000000e+00  -3.5978129630745836e-09 -8.3447614080296687e-07 0.0000000000000000e+00  -2.1734477126751252e-08 -8.8116692303295393e-07 0.0000000000000000e+00  -2.1363349083589353e-08 -8.8567321998707194e-07 0.0000000000000000e+00  -1.3178647349862927e-08 -6.7213078407894819e-07 0.0000000000000000e+00  -8.0635186787629061e-09 -2.7695403190134577e-07 0.0000000000000000e+00  -5.5107009650011672e-09 -8.3877113725155876e-07 0.0000000000000000e+00  1.4943064318795776e-08 -6.1868359941854101e-07 0.0000000000000000e+00  1.5682773662417278e-08 -7.7185455240847017e-07 0.0000000000000000e+00  4.5474684442028260e-08 -5.5062022964376280e-07 0.0000000000000000e+00  3.6766144763380416e-08 -6.9145032233583900e-07 0.0000000000000000e+00  7.0759443005376976e-08 -4.5977270263530674e-07 0.0000000000000000e+00  5.1473343036851903e-08 -6.1670556242471070e-07 0.0000000000000000e+00  8.4483791799713174e-08 -3.4530665311062853e-07 0.0000000000000000e+00  5.8597229234739613e-08 -5.0844665184745223e-07 0.0000000000000000e+00  8.3252598504842035e-08 -1.9450697680544792e-07 0.0000000000000000e+00  4.8837684119303680e-08 -3.7602829553922882e-07 0.0000000000000000e+00  6.4637485380950829e-08 7.1951667907495030e-09 0.0000000000000000e+00  3.0112474163888763e-08 -7.2686410416137343e-07 0.0000000000000000e+00  -2.1233503276215301e-08 -8.4298262179060009e-07 0.0000000000000000e+00  -3.9525417463062677e-08 -7.6311402087101434e-07 0.0000000000000000e+00  -3.5352891702264694e-08 -8.1414883192558664e-07 0.0000000000000000e+00  2.3918567699038945e-08 -1.7280792872783532e-07 0.0000000000000000e+00  1.3698366341639761e-08 -5.6614592665903029e-07 0.0000000000000000e+00  -3.2457672391830983e-08 -6.3279436390554100e-07 0.0000000000000000e+00  -6.4507066935153091e-08 -5.3038619216774739e-07 0.0000000000000000e+00  -6.9050024132211499e-09 -9.0857392535815892e-07 0.0000000000000000e+00  1.7503287397109375e-08 -8.1324260840559387e-07 0.0000000000000000e+00  -5.8449621385331359e-09 -8.9935270435567938e-07 0.0000000000000000e+00  1.8878279669903223e-09 -2.6111116534093767e-07 0.0000000000000000e+00  -2.1285388572730965e-08 -8.4389939572645919e-07 0.0000000000000000e+00  -3.8131746741868988e-08 -7.5926352873248934e-07 0.0000000000000000e+00  7.6947560206791382e-08 -2.4407992025432469e-07 0.0000000000000000e+00  9.2057559503711758e-08 1.6231691440244334e-07 0.0000000000000000e+00  1.5825096212948515e-08 -3.1722251258269010e-07 0.0000000000000000e+00  -3.5951311281878548e-08 -8.0961665416199315e-07 0.0000000000000000e+00  -6.4794439887392064e-08 -6.4713243431960601e-07 0.0000000000000000e+00  -6.1787602661395111e-08 -5.2713800024064131e-07 0.0000000000000000e+00  -9.0101348263397652e-08 -3.7895359550559334e-07 0.0000000000000000e+00  -7.5627864319532979e-08 -1.7754396145271937e-07 0.0000000000000000e+00  -9.7754925745194755e-08 -3.1746957024197404e-08 0.0000000000000000e+00  -7.1177868217237615e-08 2.1106868525403486e-07 0.0000000000000000e+00  -8.4333404820917229e-08 3.0648528658783614e-07 0.0000000000000000e+00  -5.3057921691265265e-08 5.2156586810782621e-07 0.0000000000000000e+00  -1.0267725282065115e-07 7.6876670839573050e-08 0.0000000000000000e+00  6.5642213679640223e-08 3.8978628728767576e-07 0.0000000000000000e+00  8.0335039043088917e-08 4.7110124254121385e-07 0.0000000000000000e+00  -5.6065347717473919e-08 5.6836014920492850e-07 0.0000000000000000e+00  -2.3903615995150462e-08 7.2737562517063691e-07 0.0000000000000000e+00  -2.2415654581562881e-08 7.4432670229831484e-07 0.0000000000000000e+00  5.3529468049072116e-10 8.5285189347722747e-07 0.0000000000000000e+00  2.2752286532590339e-09 8.5635264960802697e-07 0.0000000000000000e+00  1.7452983449459567e-09 8.3476099903972459e-07 0.0000000000000000e+00  -1.7690238417756519e-08 7.5091180333430010e-07 0.0000000000000000e+00  1.1578898891683812e-08 8.9703309750483263e-07 0.0000000000000000e+00  6.2995005450312309e-09 8.6042518801101518e-07 0.0000000000000000e+00  1.1861698687705871e-08 8.9069560752011206e-07 0.0000000000000000e+00  1.4579369080960099e-08 8.9851151023610693e-07 0.0000000000000000e+00  -7.8495703487508269e-09 7.4018065577168211e-07 0.0000000000000000e+00  8.3680469951472500e-09 2.3927558761175334e-07 0.0000000000000000e+00  5.2517863542666057e-08 6.5796783492850501e-07 0.0000000000000000e+00  1.4074256348139441e-08 8.6812493406721452e-07 0.0000000000000000e+00  2.5753627071378911e-08 8.2969426133013015e-07 0.0000000000000000e+00  1.2833915748205039e-08 9.0078694292560021e-07 0.0000000000000000e+00  -3.1594503051409483e-08 4.5036485915838337e-07 0.0000000000000000e+00  1.0898591880069288e-08 8.4640658096048560e-07 0.0000000000000000e+00  -4.8146877864609911e-08 -2.8699769875194199e-07 0.0000000000000000e+00  1.9655762284005079e-08 8.7243418548215860e-07 0.0000000000000000e+00  1.0616229268119481e-08 8.1968409534568862e-07 0.0000000000000000e+00  4.6373231883060253e-09 6.5461719109773378e-07 0.0000000000000000e+00  2.5769474074815167e-08 7.1301417490687323e-07 0.0000000000000000e+00  5.2588418488627329e-08 6.4820505630799104e-07 0.0000000000000000e+00  -4.1516328558083511e-08 5.6615557255875689e-07 0.0000000000000000e+00  9.9791108491125828e-08 2.6862935838760200e-07 0.0000000000000000e+00  1.1698477885923363e-08 7.4299548952686102e-07 0.0000000000000000e+00  1.2338070937827066e-08 8.7744378417316484e-07 0.0000000000000000e+00  4.7515551795805658e-08 4.3923474649570539e-07 0.0000000000000000e+00  7.7962572980871515e-08 3.8491729676288167e-07 0.0000000000000000e+00  1.4847428576630718e-08 4.6055195879672098e-07 0.0000000000000000e+00  -8.7584782932133279e-08 -5.2975292019478941e-07 0.0000000000000000e+00  5.9617556405944936e-08 6.8407337755787044e-07 0.0000000000000000e+00  3.1646016065825110e-08 8.2523839874280650e-07 0.0000000000000000e+00  -8.3006926646571595e-08 -2.0247343179329738e-07 0.0000000000000000e+00  -5.9413800498344417e-08 1.0397644744791486e-07 0.0000000000000000e+00  -2.5803941348250054e-08 4.6044869450935725e-08 0.0000000000000000e+00  1.1601162409538697e-08 4.6879961589333579e-07 0.0000000000000000e+00  3.3286829669484095e-08 5.9098592601064405e-07 0.0000000000000000e+00  -4.5552392657249189e-08 -3.1592727019898916e-07 0.0000000000000000e+00  7.2284283521218966e-08 5.7704585112039814e-07 0.0000000000000000e+00  -1.1484973504971006e-08 1.2759731044248526e-07 0.0000000000000000e+00  1.1714718703878399e-08 3.0238349973842598e-07 0.0000000000000000e+00  -8.8152315380789775e-08 1.4964328277456486e-07 0.0000000000000000e+00  -1.6594176607370226e-09 3.8916166927776486e-07 0.0000000000000000e+00  6.8463554587335498e-08 8.2685084775903054e-08 0.0000000000000000e+00  9.6538216582590826e-09 6.8730213965963728e-07 0.0000000000000000e+00  2.4511508615981858e-08 8.1377773421964672e-07 0.0000000000000000e+00  1.4737340247980844e-08 8.9014231456235897e-07 0.0000000000000000e+00  1.5501430851271231e-08 8.8775439796928771e-07 0.0000000000000000e+00  1.3926703565163136e-08 9.0467810002764849e-07 0.0000000000000000e+00  2.3273358855162872e-10 5.7448654325481267e-07 0.0000000000000000e+00  -4.7368637866145444e-09 7.2736359774339730e-07 0.0000000000000000e+00  9.2936170484873489e-08 9.1933568482845933e-08 0.0000000000000000e+00  -5.1910180289364247e-08 6.2465017151235105e-08 0.0000000000000000e+00  -8.9318397780974281e-08 -4.2924066261387793e-07 0.0000000000000000e+00  -6.7763359901313880e-09 -8.9939160199622747e-07 0.0000000000000000e+00  -6.3011565842317438e-09 -8.6666614572067743e-08 0.0000000000000000e+00  9.4681844198660332e-08 -1.7733808617653097e-07 0.0000000000000000e+00  -2.6966968199624012e-08 4.2839798289053204e-07 0.0000000000000000e+00  -1.9711033261254734e-08 -8.9446567659048856e-07 0.0000000000000000e+00  -6.3605960364996272e-08 -6.6009747862161620e-07 0.0000000000000000e+00  -5.2643738544700624e-08 -7.3568099336882174e-07 0.0000000000000000e+00  4.4516230266928087e-08 7.6473354051449096e-07 0.0000000000000000e+00  -8.1226687286475827e-08 3.7353957956523245e-07 0.0000000000000000e+00  -5.0889677724655448e-08 5.8725205015549724e-07 0.0000000000000000e+00  3.0434081240491086e-08 7.5448439877390270e-08 0.0000000000000000e+00  1.1577883488940408e-09 4.2132634298500434e-07 0.0000000000000000e+00  9.9820104504731710e-09 7.4219758044567779e-07 0.0000000000000000e+00  -1.0432031556180821e-07 -2.3939488660493178e-07 0.0000000000000000e+00  1.0097526447023240e-07 -3.3587933504745343e-08 0.0000000000000000e+00  2.8474362475515489e-08 -6.4079129243885416e-07 0.0000000000000000e+00  -1.9921065239031276e-08 -8.9288987625056089e-07 0.0000000000000000e+00  -7.3759005205388887e-09 -6.6315632193783373e-07 0.0000000000000000e+00  3.7411772454337982e-08 8.1680776861188418e-07 0.0000000000000000e+00  4.2509690528983135e-08 2.5023096840053023e-07 0.0000000000000000e+00  -3.1776547021166141e-08 -6.5122317355903222e-07 0.0000000000000000e+00  1.2298343525305279e-08 8.9837527136710273e-07 0.0000000000000000e+00  4.8736118074492185e-08 -2.9588259096280117e-07 0.0000000000000000e+00  -1.9931461865986576e-08 -3.7613231421308728e-07 0.0000000000000000e+00  -1.0148011505813743e-07 -1.4143453127208317e-07 0.0000000000000000e+00  -2.1939456206267272e-08 6.9866985516430756e-07 0.0000000000000000e+00  1.1743381949648132e-08 -8.3197831579090033e-07 0.0000000000000000e+00  7.0247115885955607e-09 3.3414862830953146e-08 0.0000000000000000e+00  9.9251135439447635e-09 -8.0846393910897579e-07 0.0000000000000000e+00  1.0966084389813083e-08 8.9070438024495378e-07 0.0000000000000000e+00  8.0857877129972612e-08 5.2628174213670094e-07 0.0000000000000000e+00  9.4026258462364509e-08 3.3745661072966763e-07 0.0000000000000000e+00  -3.0136081802770475e-08 -8.4489659068290355e-07 0.0000000000000000e+00  -7.2716576968606748e-09 3.6064702200836306e-07 0.0000000000000000e+00  -1.8418810480422030e-08 -4.3345559484339978e-07 0.0000000000000000e+00  1.1385516594815506e-08 5.8447857687941255e-07 0.0000000000000000e+00  -6.7784061597521608e-08 4.2211730631157868e-07 0.0000000000000000e+00  8.2979205322888980e-09 -8.4449992179889527e-07 0.0000000000000000e+00  1.0265512076143740e-07 6.9622513856279524e-08 0.0000000000000000e+00  1.0506324821921961e-08 8.2856651300539387e-07 0.0000000000000000e+00  1.2855598020692582e-08 6.7480535826776621e-07 0.0000000000000000e+00  -5.7182945862148537e-08 3.5672319943757758e-07 0.0000000000000000e+00  5.9514411865184878e-08 6.9446638714471751e-07 0.0000000000000000e+00  5.2869110854584517e-10 5.0725133098822529e-09 0.0000000000000000e+00  1.3445682347662721e-08 5.0460614697232327e-07 0.0000000000000000e+00  -1.2506918561389245e-08 -7.5081650277505401e-07 0.0000000000000000e+00  1.0778414211298332e-09 3.3195395587436480e-07 0.0000000000000000e+00  -7.3577194266848543e-09 -5.8229802207001759e-07 0.0000000000000000e+00  9.2143726984475329e-09 4.3797118886253520e-07 0.0000000000000000e+00  1.1999735642453558e-08 7.6396081605218185e-07 0.0000000000000000e+00  -1.1158975950385654e-08 -1.5066967668133721e-07 0.0000000000000000e+00  -9.1579412618378549e-09 -5.6727172693389108e-07 0.0000000000000000e+00  4.6799082461350351e-09 4.7607064797914787e-07 0.0000000000000000e+00  -7.7555069894676252e-09 -4.2275965101788660e-07 0.0000000000000000e+00  5.3978351345383137e-09 1.5912057888139402e-07 0.0000000000000000e+00  2.0826188127846757e-08 -1.3788533132522876e-07 0.0000000000000000e+00  -1.9858400752376179e-11 -3.6558661246773765e-07 0.0000000000000000e+00  9.6083292636761847e-09 1.3008106426653925e-07 0.0000000000000000e+00  -7.2870975768286650e-09 -3.3534238392491307e-07 0.0000000000000000e+00  -3.1567862438548583e-10 5.2609065105390698e-07 0.0000000000000000e+00  1.0626005535557932e-08 7.4623213477998144e-07 0.0000000000000000e+00  -1.3611911195325976e-08 -7.7996012104660981e-07 0.0000000000000000e+00  8.0578794714330559e-09 1.3658357157833753e-07 0.0000000000000000e+00  -3.3493663542922566e-08 -1.4088222599393766e-07 0.0000000000000000e+00  -1.8417372409258267e-08 -6.4037727388379511e-07 0.0000000000000000e+00  -3.2318951831232878e-08 -5.8956092751312924e-07 0.0000000000000000e+00  1.2444110537781633e-08 7.3135008687107300e-07 0.0000000000000000e+00  -9.3707366019982537e-09 -8.1382132130893292e-07 0.0000000000000000e+00  6.3775511937661875e-10 2.1595000665978172e-07 0.0000000000000000e+00  1.2472809924438266e-08 8.0382297827364920e-07 0.0000000000000000e+00  -1.4667439526610954e-08 -8.2736434097993267e-07 0.0000000000000000e+00  1.1405785449856416e-08 -5.8328094718553475e-07 0.0000000000000000e+00  1.3362199127449899e-08 7.8266188936915577e-07 0.0000000000000000e+00  -9.1653288820243680e-09 -2.3849875060939033e-07 0.0000000000000000e+00  3.7992042570383120e-08 2.8186790894022463e-07 0.0000000000000000e+00  4.3339448630075628e-08 2.6555385780401146e-07 0.0000000000000000e+00  2.0885611787924475e-08 -3.3642732071523491e-07 0.0000000000000000e+00  -7.2158316946870082e-09 6.5572287440585424e-07 0.0000000000000000e+00  1.9269151908878780e-08 -2.9569107456421426e-07 0.0000000000000000e+00  -3.6664196468310322e-08 2.0776828381231230e-07 0.0000000000000000e+00  5.5948677687896763e-09 5.4455733608632152e-07 0.0000000000000000e+00  -2.1368718040393251e-08 -7.6550684823404895e-07 0.0000000000000000e+00  3.1113689971765185e-09 -1.1948620117448117e-07 0.0000000000000000e+00  -2.2112542412351196e-10 -3.8983466670778764e-07 0.0000000000000000e+00  </DataArray> 
</PointData> 
</Piece>
</UnstructuredGrid>
</VTKFile>