<?xml version="1.0"?>
<VTKFile type="UnstructuredGrid"  version="0.1"  >
<UnstructuredGrid>
<Piece  NumberOfPoints="201" NumberOfCells="657">
<Points>
<DataArray  type="Float64"  NumberOfComponents="3"  format="ascii">-19.86852428486232 0.1371400443740509 50.20766752435841  -8.890823294555178 -5.572403879639491 -50.11366710905169  3550.842913220917 -52.61017409162389 -71.29389027037217  5905.94987349679 -57.99737743274953 -120.1405271950364  7047.304347989053 -61.20293943365259 -181.8264289667027  7573.031300589337 -61.3951333649364 -132.3167167367816  7731.308403882106 -63.843026900129 4.284929354282763  7575.030089698334 -64.58977292273202 135.8902053060844  7047.91527638571 -64.65075530261953 180.0792043899745  5910.180245067246 -71.80150002686756 117.3759527943327  3556.468675516006 -36.77943711672606 68.79087644135322  4092.916617854054 -2339.252145730067 -102.3924756357318  4233.508521067067 1799.633217328196 88.06131026814691  7457.905987171043 -1581.839414367994 -68.70188465607797  6212.120763909908 -1969.813486931911 162.3017210501159  7098.014445038949 1559.880313368129 171.4682849232882  7101.427225582158 1558.650140136192 -167.9899193878755  4579.643290451395 2000.936418560744 -111.0143379797779  1724.444348501074 -2293.347298172652 74.65687583848567  6218.683938823216 -1836.871332954909 -155.8991863272673  4380.589028828782 -3627.987825050332 -150.900444492933  5906.561826104853 -3209.039762723241 -160.2843094122975  4026.207672664363 -4557.226812663431 -160.1006668310059  5371.779615924052 -4057.42579822568 -99.79086188935968  3374.275982450326 -5135.177366243666 -81.54875278962126  4736.673365660572 -4558.468018900282 19.4847810186767  2490.0043365369 -5447.223652788266 37.93079682603048  3739.178430413975 -4872.517100648643 131.5900901134848  1340.124122076713 -5494.798649279656 130.487169858748  2597.445587425979 -4836.251242439588 163.0678389193654  -113.1333027977807 -5178.569333156563 159.4988710264366  5664.009273300044 -3785.439141155864 108.9591622359897  6263.390143864769 1723.89258729715 163.3878345545043  5847.145821661217 3139.899062988465 168.1651451196008  6601.394958875073 2812.993057019892 98.07769186488795  1090.317829459299 -4355.140123787401 118.0061944448167  3890.411092636933 -3701.921159630293 137.472183096471  4489.991624238764 3369.2606953348 147.6515750255915  3899.008175595563 4473.559138058367 156.9556400528195  7470.380495068802 -1546.510690162994 67.42957982881356  6549.565169060996 -3115.103870063919 4.864687627658116  7141.96629534183 -1668.479513521733 -153.9352104840357  1715.022319977911 2272.726537156714 -68.97910695946561  6237.134291304988 1703.03517530437 -163.7843131780162  5815.585774869756 3137.245492918702 -172.5691269558047  1690.628859550236 -5393.553923196144 -140.7887652029665  -1215.633724699238 -5512.024439794429 126.050750473379  2047.522668477046 -4011.329952296916 -113.1909491956307  6560.580553491506 2857.358828215216 -105.1034509307787  4985.530975511039 4201.327394487208 -116.8604560828214  3835.593593707776 4421.090360715117 -162.478487389008  2826.95941881458 5175.847113237709 -113.7305576349721  1330.563889464807 5184.453433443668 -154.9729804761721  342.1357911669861 5600.416567381162 -103.4339994708631  -1368.39678303379 5300.060794384865 -151.043289023599  -2110.458062859024 5487.792011886639 -84.57467499549186  -3778.277221596406 4853.26856845054 -142.6151014698524  -427.7091910511027 5714.223325114724 9.279641730523812  -2808.497820179538 -4838.055109300196 156.0185457813359  -3563.693450705844 -4967.524425959043 105.2678312028124  -4252.572601971059 4857.69285850486 -43.6025073730374  -5654.722795716855 3899.149077009338 -110.1782344618716  -5893.562007588966 3816.26017176816 8.705015712745753  -6944.302257124076 2543.08769486592 -72.87899532246325  -7014.814058148122 2415.182153157468 66.56376737276966  -6533.462611192433 2561.423533629478 -163.8683447250897  -5848.83510603013 3638.455081647381 132.4403579699003  -7417.8892467672 1116.853606617003 -130.0525340768872  -6835.59270908768 2102.626989384877 160.6403371379486  -6931.081810111176 796.5797904938763 -177.5223464565141  -7307.505911248141 -736.3528035156196 -168.146148709577  -5451.845461096199 3332.141278348544 166.3155330705623  -1562.23532232856 -3265.989407703375 82.18932318661314  -5033.318587014443 -3973.308008595669 154.5834927843893  -6538.174562729911 -1123.036574920037 -165.9149318311364  -6497.582504489725 -2490.999203078185 -165.4858745568332  -7519.8763973431 726.9444265058357 117.2514903616853  -3070.30946090878 4465.416496524099 -158.2993720808767  -6288.164166423896 1524.812694406115 156.7950173529113  2030.039801984984 4558.579962292963 147.8919961194372  -7221.030346660609 -1913.164279334813 -80.34718009770276  -5803.393247775734 542.1404414636945 -121.3130632625225  -4500.559546387627 2890.928536126699 122.5482931115036  -5197.036046733964 -2964.202108914892 -157.2361238779059  -4928.865047849795 -3983.547198973118 -159.4842005721068  -4125.600460218449 4591.772198337595 156.3068925976217  -2014.835681473527 -5527.285653538759 28.36404148005187  -5056.037554615984 539.5859561780027 91.59058572814848  -6535.507782728035 -589.5452837498938 157.7192752507812  -3126.76822568204 -4365.690237883779 -157.0428816661945  -2839.310100943144 -5064.350066740333 -145.8799743713143  -3090.174078511291 -3174.98976743825 -107.9004238655763  4018.077153823381 4867.359828009176 -11.56548367169221  -5400.730066244507 -4044.681302422746 74.80066127383417  -6600.764044534866 -2778.597222309508 129.8840628287476  1515.047224557846 5280.796409808041 149.6237347252491  -607.5213837928894 5075.070825445525 152.5406418999294  -224.3152202798554 4284.669300020923 122.7737297196336  -3014.867532622627 2085.240378124534 80.39538205199223  -4241.08385056385 -3645.323339046678 152.8447086111956  2226.20236471168 4483.076549467935 -144.4643241580464  -4466.953740352526 -4590.099902576394 -91.8098392701354  -765.8031702355062 3864.387611612882 -102.6719168383733  -1889.598937185882 1880.288890933261 -69.71810809003131  -943.5035855017421 5539.881539372257 121.2441299913083  -2481.260447252313 -1336.367529376373 63.0115184107602  -640.6431065822833 -5223.80515411714 -156.0154457919292  -4733.2914319859 -1845.739751542221 110.1027821756345  -6178.152827341566 -2506.291929340708 165.6737430391196  -7186.708397420083 -1113.520608056899 173.7369312425399  -7428.674437335262 -1388.765889579075 68.16352497295479  -7657.494961872539 -130.0075485944333 -44.93588137864028  -3872.58995264466 3209.782259559652 -122.6644601388956  -5278.013345954623 3215.432678484802 -161.4265895070794  -718.3898175125094 -5578.210717200101 -120.744798039055  -325.4083958313586 4915.346478292116 -151.5358964590129  3216.154261337255 5081.875181376054 101.8297802770392  7126.720025724883 -1599.151642843045 156.3505414613096  531.5351560451496 -2412.527701825953 -65.1847394344411  1229.177460736379 -5654.612012807418 -64.19845440315648  -2868.74151086013 4393.696734767504 146.7597418570369  7459.067430128182 1377.973481365496 -72.28398048519804  5110.552269752578 4144.425775007659 106.9475280919603  5885.715184227797 3668.396721701724 -6.105788868928507  -6086.213337960077 -3415.115818214266 -104.4359836254274  -2644.198409108622 5426.384545076873 30.20001833700339  -4409.030137974108 4743.726064741777 77.96733547985784  -554.945854238078 -4412.000503587736 -120.871342562033  -2708.114194048933 -951.7189044252955 -65.08996206817251  -5111.843684168569 -1320.295070665318 -109.166862452592  1824.033431077187 5546.733716260049 -19.89906307747732  184.4466175856053 -5730.106577151038 48.0629771318708  4721.482622869037 -3999.904050104572 164.0886013608429  7457.345899372155 1396.934833204119 68.70105672320166  4515.5503041001 -2063.447909120746 112.6293118389618  -6620.007908518387 -3003.563549648328 12.0737623761835  -1738.39966627844 -4540.705012146268 135.5791815866492  4622.168735596095 3271.743177582432 -149.979341116517  -7169.788345590264 547.560954662355 178.6432411191926  1999.169046164477 -4894.30036438698 -155.8733144334739  2541.414764492288 3590.386915629913 107.2532044447613  1123.30790163822 5586.975111251401 83.33869323736074  -5224.358275474591 3912.763612942233 -160.2978140745691  6647.766246000023 -2826.310677614226 -106.0106752293861  -171.6319023383986 2222.512698549339 60.77617447308717  6281.887636444023 -2892.572164927064 153.5518274634461  -7474.060047423311 1435.763706587762 -11.53444473925467  -4067.044228917181 -4864.469583779235 0.4968283761466559  -2529.60991631521 -5372.726116790839 -69.33583373763  6977.257505800635 2433.950789854874 -3.944775163102764  -2313.164368073765 3717.830685654215 110.4450696256455  2909.612439545363 3344.706581260808 -111.4793434139074  -3803.341116233888 659.2092018949295 -69.41598771457612  -2994.486450451156 5196.32662955102 120.6877242610394  6769.366996688294 -2643.499389345346 110.6791171759863  -566.02952623839 -5719.60907128859 -40.09369760740902  -6025.265265412289 1868.226409789274 -142.5210082901986  -4574.378137898239 1772.437021647484 -101.4037991389923  -2429.523985895709 5045.809692241568 157.6526900362872  -5518.096188882147 -4004.39427673028 -24.08249085226469  -5.683723152415547 -3.17206636998678 0.5518697040261605  -3394.379596122315 -2976.06440874533 1.116520885748721  5107.981160556911 1130.664138053129 -2.865023517377268  -2092.584197160786 3259.076574280658 22.57637290137526  3849.500906108799 -2321.192698076971 24.52450208786721  -2769.642304040115 406.5861807291959 -26.59743856123673  -5223.428978936069 643.5887127371841 -0.4812528595009734  1038.749210403681 3633.898383534264 -21.23432071514193  3702.707815175881 -1873.588491879893 -24.52988606201199  -3045.388999308382 -357.2369165692639 29.61093007801806  2776.182947998981 2739.191253342291 31.39307028770736  -1051.798914661719 -3163.562344997189 -36.25887857640393  842.4105202935518 -4238.763157973611 0.327498436594084  2340.023499210827 1284.145769512225 -31.75253775853142  -878.2708080
[...]
<PointData  Vectors="Coriolis"> 
<DataArray  type="Float64"  Name="Coriolis"  NumberOfComponents="3" format="ascii">1.4335634969911159e-10 6.0349656068787121e-09 0.0000000000000000e+00  -2.8403796579041351e-09 2.8420638887209312e-09 0.0000000000000000e+00  -2.2077532561036475e-08 -7.6665971456082102e-07 0.0000000000000000e+00  -2.1815128286209920e-08 -1.1660687098060878e-06 0.0000000000000000e+00  -2.3976457165270487e-08 -1.2401742800991912e-06 0.0000000000000000e+00  -2.4596414952141144e-08 -1.2337769478032257e-06 0.0000000000000000e+00  -2.5390351441274096e-08 -1.2274645037733245e-06 0.0000000000000000e+00  -2.4848800308600045e-08 -1.2344800738417665e-06 0.0000000000000000e+00  -2.5028962633494270e-08 -1.2406820444989110e-06 0.0000000000000000e+00  -2.7840362116439124e-08 -1.1686586717585852e-06 0.0000000000000000e+00  -1.6771419414222037e-08 -7.6884351924984513e-07 0.0000000000000000e+00  -3.2356685149156376e-07 -8.2007573035564874e-07 0.0000000000000000e+00  2.4238720975612707e-07 -8.8584903424332498e-07 0.0000000000000000e+00  -1.4333775373481168e-07 -1.2125207574417055e-06 0.0000000000000000e+00  -2.2265090510970479e-07 -1.1293778526156031e-06 0.0000000000000000e+00  1.1642067254888920e-07 -1.1860152206516969e-06 0.0000000000000000e+00  1.1658587395290735e-07 -1.1953200709953518e-06 0.0000000000000000e+00  2.5317961849648321e-07 -9.3011371216719941e-07 0.0000000000000000e+00  -3.5719024026918258e-07 -3.7116301473169959e-07 0.0000000000000000e+00  -2.1095898113123382e-07 -1.1363485552226908e-06 0.0000000000000000e+00  -4.2128635885059727e-07 -8.0609687154717924e-07 0.0000000000000000e+00  -3.1312445281182564e-07 -1.0077167626583726e-06 0.0000000000000000e+00  -4.4102482222142170e-07 -6.8650940059320027e-07 0.0000000000000000e+00  -3.5612500215406426e-07 -8.7372333567335227e-07 0.0000000000000000e+00  -4.5207261350286064e-07 -5.5551917258659181e-07 0.0000000000000000e+00  -3.9179777745439848e-07 -7.6473045586780601e-07 0.0000000000000000e+00  -4.7496350754387523e-07 -4.0810619631862816e-07 0.0000000000000000e+00  -4.4580437052752392e-07 -6.2371889863864273e-07 0.0000000000000000e+00  -5.1014741745370150e-07 -2.2686522923407154e-07 0.0000000000000000e+00  -5.1038788748710590e-07 -4.6406427633671777e-07 0.0000000000000000e+00  -5.3895667630067067e-07 1.6867866112078138e-08 0.0000000000000000e+00  -3.3681465540929872e-07 -9.2875779932686178e-07 0.0000000000000000e+00  1.6468031087625148e-07 -1.1553647561813350e-06 0.0000000000000000e+00  2.7204132703481685e-07 -1.0092688317649395e-06 0.0000000000000000e+00  2.0830586814767459e-07 -1.0711136298602373e-06 0.0000000000000000e+00  -5.5059182838675670e-07 -2.1480538515881610e-07 0.0000000000000000e+00  -4.4948430310167436e-07 -7.3639182479168902e-07 0.0000000000000000e+00  3.6825564075164539e-07 -8.4696161113327998e-07 0.0000000000000000e+00  4.1650795332454025e-07 -6.8121277356334255e-07 0.0000000000000000e+00  -1.4131400886005652e-07 -1.2128502244673864e-06 0.0000000000000000e+00  -2.6579945073910102e-07 -1.0557483358379428e-06 0.0000000000000000e+00  -1.6120747671358050e-07 -1.2102334710351358e-06 0.0000000000000000e+00  3.4832028826827828e-07 -3.6792696940855210e-07 0.0000000000000000e+00  1.6817208000277925e-07 -1.1592450686722660e-06 0.0000000000000000e+00  2.7509364288824712e-07 -1.0042805879222008e-06 0.0000000000000000e+00  -5.1183963883946187e-07 -2.8872580682065136e-07 0.0000000000000000e+00  -4.9444311005896512e-07 2.0599519889505661e-07 0.0000000000000000e+00  -5.1884689955633165e-07 -4.0768857191431613e-07 0.0000000000000000e+00  2.1336397816960250e-07 -1.0640828156306503e-06 0.0000000000000000e+00  3.4053374121164099e-07 -8.2788672701677757e-07 0.0000000000000000e+00  4.2247402604875965e-07 -6.8223609642192434e-07 0.0000000000000000e+00  4.4582766186645843e-07 -4.7527881906894780e-07 0.0000000000000000e+00  5.0409069685370131e-07 -2.3136548339292467e-07 0.0000000000000000e+00  4.8599825427150636e-07 -4.7511466098611150e-08 0.0000000000000000e+00  5.1590855935752936e-07 2.5240597345296026e-07 0.0000000000000000e+00  4.8252786299998221e-07 3.6599543639874297e-07 0.0000000000000000e+00  4.5788650690894826e-07 6.4874479103895355e-07 0.0000000000000000e+00  4.8168134881915749e-07 8.4996802972650554e-08 0.0000000000000000e+00  -4.6701214630293376e-07 5.0089980187924991e-07 0.0000000000000000e+00  -4.1528574400117592e-07 5.9415195245916369e-07 0.0000000000000000e+00  4.3054254395987304e-07 7.0472226179736905e-07 0.0000000000000000e+00  3.6843247738803078e-07 9.3097975592551140e-07 0.0000000000000000e+00  3.4924706364530710e-07 9.5182861250707084e-07 0.0000000000000000e+00  2.3726426437111921e-07 1.1185684952856590e-06 0.0000000000000000e+00  2.2527085180171708e-07 1.1228741154233497e-06 0.0000000000000000e+00  2.6561141692446368e-07 1.1040433658803491e-06 0.0000000000000000e+00  3.5000411760342134e-07 9.6845375598258171e-07 0.0000000000000000e+00  1.1525571082374456e-07 1.1950288472647657e-06 0.0000000000000000e+00  2.1633101121988493e-07 1.1435125518473439e-06 0.0000000000000000e+00  9.6401347001618566e-08 1.2116192683835522e-06 0.0000000000000000e+00  -5.5830848799678475e-08 1.2128804590587269e-06 0.0000000000000000e+00  3.7152952652175241e-07 9.7361285071195185e-07 0.0000000000000000e+00  -4.5637119749183736e-07 3.3428646264383847e-07 0.0000000000000000e+00  -3.4965622359985066e-07 8.6201841884613421e-07 0.0000000000000000e+00  -1.1205201566564904e-07 1.1957626028742792e-06 0.0000000000000000e+00  -2.2259593769876978e-07 1.1158273294628555e-06 0.0000000000000000e+00  7.7969896999973715e-08 1.2001857876498415e-06 0.0000000000000000e+00  4.9950601087743967e-07 5.7050928624868982e-07 0.0000000000000000e+00  1.8901180026378264e-07 1.1535109706597004e-06 0.0000000000000000e+00  5.0798275045242237e-07 -3.8000233663656465e-07 0.0000000000000000e+00  -1.5076600478959025e-07 1.1638555897982702e-06 0.0000000000000000e+00  7.4930632655262252e-08 1.1364646503269760e-06 0.0000000000000000e+00  3.8982720335702879e-07 8.7628096563066988e-07 0.0000000000000000e+00  -3.1742896153846207e-07 9.6632974828845398e-07 0.0000000000000000e+00  -3.5201513118214858e-07 8.4844172038657910e-07 0.0000000000000000e+00  4.5285850788980354e-07 7.1206640261208996e-07 0.0000000000000000e+00  -4.6082773630488874e-07 3.3302761040877902e-07 0.0000000000000000e+00  8.3485330162776904e-08 1.0326075787359224e-06 0.0000000000000000e+00  -5.7256857264466581e-08 1.2136346265789872e-06 0.0000000000000000e+00  -4.5899673317369716e-07 5.7787583770033025e-07 0.0000000000000000e+00  -4.5380905649964364e-07 4.8669265567831835e-07 0.0000000000000000e+00  -4.1605802665016462e-07 6.3299396356432758e-07 0.0000000000000000e+00  3.8919765044193390e-07 -6.6625590258271790e-07 0.0000000000000000e+00  -3.1933898112722150e-07 8.8721199959265864e-07 0.0000000000000000e+00  -2.2874565167464266e-07 1.1000834649696285e-06 0.0000000000000000e+00  4.9395131402210952e-07 -2.6053170945241138e-07 0.0000000000000000e+00  5.3176679003348073e-07 1.2121024519972796e-07 0.0000000000000000e+00  5.3410951722208061e-07 4.8294670559109393e-08 0.0000000000000000e+00  3.2110439964212457e-07 6.3391869376804249e-07 0.0000000000000000e+00  -3.9626975312518776e-07 7.9344720796965424e-07 0.0000000000000000e+00  5.0385699686820763e-07 -4.1545398580284153e-07 0.0000000000000000e+00  -3.7049260275751178e-07 7.3599317489688088e-07 0.0000000000000000e+00  5.2050336809914624e-07 1.5712970543862843e-07 0.0000000000000000e+00  3.0166540568541147e-07 4.0611969717683475e-07 0.0000000000000000e+00  5.0039695106201368e-07 1.7462251618559099e-07 0.0000000000000000e+00  -2.1432974965278193e-07 5.4377330402759223e-07 0.0000000000000000e+00  -5.3541955915177094e-07 1.1016388560440397e-07 0.0000000000000000e+00  -2.3968133386462847e-07 9.5319822185350242e-07 0.0000000000000000e+00  -2.4395492820597924e-07 1.1035588540340879e-06 0.0000000000000000e+00  -9.2528170506372126e-08 1.2019269676094628e-06 0.0000000000000000e+00  -1.0705958407313179e-07 1.1845273787657418e-06 0.0000000000000000e+00  2.2218479201000636e-09 1.2050083222399081e-06 0.0000000000000000e+00  4.2716464971841020e-07 7.6270174357124568e-07 0.0000000000000000e+00  3.7531059832897599e-07 9.6147497770080710e-07 0.0000000000000000e+00  -5.0325653356661548e-07 1.1990703414973960e-07 0.0000000000000000e+00  5.3587636832521445e-07 6.8532395293202491e-08 0.0000000000000000e+00  4.2800176486782497e-07 -5.3874139936284685e-07 0.0000000000000000e+00  -1.5535491160766871e-07 -1.2108471466519065e-06 0.0000000000000000e+00  -3.7610557283799063e-07 -1.0935552143615234e-07 0.0000000000000000e+00  -4.9600216197333773e-07 -2.0363502191710804e-07 0.0000000000000000e+00  5.1293376892869326e-07 5.4555499372057815e-07 0.0000000000000000e+00  9.0568260641240242e-08 -1.1951750223902991e-06 0.0000000000000000e+00  3.3215548240350897e-07 -8.4543851226353020e-07 0.0000000000000000e+00  2.7494805302308635e-07 -9.4891669585171876e-07 0.0000000000000000e+00  -2.7445235974694553e-07 1.0065680502901155e-06 0.0000000000000000e+00  4.7039991405986001e-07 4.4896837000967936e-07 0.0000000000000000e+00  4.2746642490709272e-07 7.3100780379988487e-07 0.0000000000000000e+00  -5.4557734349192570e-07 1.0852958513792438e-07 0.0000000000000000e+00  -1.4963900256860259e-07 5.8750110355869877e-07 0.0000000000000000e+00  -1.6969638606349815e-07 1.0346511244337837e-06 0.0000000000000000e+00  4.6135152026505540e-07 -2.9864121541390328e-07 0.0000000000000000e+00  -4.9462226222586151e-07 -3.0833116962044417e-08 0.0000000000000000e+00  -4.0816358113074307e-07 -8.1870919917999006e-07 0.0000000000000000e+00  9.2201428660246311e-08 -1.1918774461589029e-06 0.0000000000000000e+00  -2.8315111212568614e-07 -8.9803686692947691e-07 0.0000000000000000e+00  -2.3229850955878226e-07 1.0807914893576885e-06 0.0000000000000000e+00  -5.1863655382227887e-07 3.3259419271025179e-07 0.0000000000000000e+00  3.5867115836084894e-07 -8.7487558284265656e-07 0.0000000000000000e+00  6.4991086768323956e-08 1.2150921704383849e-06 0.0000000000000000e+00  -5.3213641394715490e-07 -3.6357973533657624e-07 0.0000000000000000e+00  4.6567137128214086e-07 -5.1115471760548534e-07 0.0000000000000000e+00  4.7589817312124394e-07 -1.8011429246206994e-07 0.0000000000000000e+00  3.9985211127658188e-07 9.0124880276992155e-07 0.0000000000000000e+00  -2.4920735128400101e-07 -1.0894593998373926e-06 0.0000000000000000e+00  3.4758410959743179e-07 3.5996983451288572e-08 0.0000000000000000e+00  -2.8074899473992846e-07 -1.0638822730941473e-06 0.0000000000000000e+00  1.3899818443990105e-07 1.1769261637444512e-06 0.0000000000000000e+00  -3.8691414225994526e-07 6.6349698105669513e-07 0.0000000000000000e+00  -4.4843116220876703e-07 4.1935159427878635e-07 0.0000000000000000e+00  1.6876367779856311e-07 -1.1161706018263609e-06 0.0000000000000000e+00  4.9505412867696691e-07 4.6829375026264641e-07 0.0000000000000000e+00  4.3279717468273516e-07 -5.8959554327074833e-07 0.0000000000000000e+00  1.1161883908051371e-07 8.0989337410462611e-07 0.0000000000000000e+00  4.7542921824630224e-07 5.1527257433518947e-07 0.0000000000000000e+00  -2.3605364983839226e-07 -1.1115839407353130e-06 0.0000000000000000e+00  -4.9032017762811857e-07 9.2005421797419224e-08 0.0000000000000000e+00  2.4075816188634226e-07 1.1293853764173486e-06 0.0000000000000000e+00  2.6254519745548003e-07 9.2130281303273731e-07 0.0000000000000000e+00  5.0612946137474500e-07 4.3808236405409863e-07 0.0000000000000000e+00  -3.1001586118692301e-07 8.9994407572134846e-07 0.0000000000000000e+00  -2.1294664319055835e-09 1.6228791515997686e-09 0.0000000000000000e+00  -3.9144101026055589e-07 6.9592078516791675e-07 0.0000000000000000e+00  1.4116676902296488e-07 -1.0491431354793827e-06 0.0000000000000000e+00  4.6202050425998594e-07 4.3652920699349567e-07 0.0000000000000000e+00  -3.3207532537650533e-07 -7.8552438208319957e-07 0.0000000000000000e+00  7.3594978630382994e-08 6.0576381697428834e-07 0.0000000000000000e+00  9.9468779308074493e-08 1.0622958669131265e-06 0.0000000000000000e+00  5.0056156270743761e-07 -2.1467566286102207e-07 0.0000000000000000e+00  -2.7794113782717845e-07 -7.7302089618676414e-07 0.0000000000000000e+00  -5.3185839193911043e-08 6.6328147033013605e-07 0.0000000000000000e+00  3.8405513789317835e-07 -5.8681549560977100e-07 0.0000000000000000e+00  -4.4937655471350218e-07 2.2501345611946578e-07 0.0000000000000000e+00  -5.4742191380660535e-07 -1.7195133965603336e-07 0.0000000000000000e+00  1.9769403808102519e-07 -5.1337427006598077e-07 0.0000000000000000e+00  -4.8302752282455996e-07 1.8554824169853954e-07 0.0000000000000000e+00  -9.0412163552440075e-08 -4.6761861311719971e-07 0.0000000000000000e+00  4.4769046146423026e-07 6.9815547676863730e-07 0.0000000000000000e+00  -1.9785412305885793e-07 1.0393251837711286e-06 0.0000000000000000e+00  -8.1267040126591645e-10 -1.0889740185393443e-06 0.0000000000000000e+00  3.5908282329603344e-07 1.7797226489644981e-07 0.0000000000000000e+00  5.2826345225145853e-07 -1.9477876770264197e-07 0.0000000000000000e+00  3.2250584202466210e-07 -8.7713716764731282e-07 0.0000000000000000e+00  3.9533210239057460e-07 -7.8971891515516197e-07 0.0000000000000000e+00  2.6228688252280808e-07 9.9977496286066950e-07 0.0000000000000000e+00  -1.7864460004444480e-07 -1.1138128474043459e-06 0.0000000000000000e+00  4.6185565206813542e-07 2.8013805181854738e-07 0.0000000000000000e+00  -1.7358702461681690e-07 1.1148511171197986e-06 0.0000000000000000e+00  1.1080303748099452e-08 -1.1537387995411584e-06 0.0000000000000000e+00  -4.2986730563269400e-07 -7.6172034579881025e-07 0.0000000000000000e+00  2.0827212111658388e-07 1.0770607141652157e-06 0.0000000000000000e+00  -2.7929187260217179e-07 -3.2211632068702087e-07 0.0000000000000000e+00  -5.1124084998966835e-07 3.7687984589762611e-07 0.0000000000000000e+00  -5.1467716818511195e-07 3.5269364222407372e-07 0.0000000000000000e+00  -5.2734800276978362e-07 -4.3089079477088541e-07 0.0000000000000000e+00  4.1739403623902273e-07 8.6334014408617713e-07 0.0000000000000000e+00  -5.3015167689720510e-07 -3.7877941876986911e-07 0.0000000000000000e+00  5.3810102063552954e-07 2.5661293507015421e-07 0.0000000000000000e+00  -2.8392684025348890e-07 7.5672723745806960e-07 0.0000000000000000e+00  2.4324952725796419e-07 -1.0476093572455353e-06 0.0000000000000000e+00  3.8673382346538406e-07 -1.7400013904091444e-07 0.0000000000000000e+00  2.0988519554531922e-07 -5.4679207017142108e-07 0.0000000000000000e+00  </DataArray> 
</PointData> 
</Piece>
</UnstructuredGrid>
</VTKFile>