<?xml version="1.0"?>
<VTKFile type="UnstructuredGrid"  version="0.1"  >
<UnstructuredGrid>
<Piece  NumberOfPoints="201" NumberOfCells="657">
<Points>
<DataArray  type="Float64"  NumberOfComponents="3"  format="ascii">-0.1111175230471324 -0.4057938372606043 768.9135820165377  -0.0456844947460805 0.3626858359054096 -768.9906116543473  1488.358317084426 0.3534238182420439 -732.6479010422681  2827.517959527479 0.2101635104648763 -625.958514558569  3885.535466476737 0.06191380467715995 -457.653111291342  4562.078397231166 -0.005715607737391697 -241.5425426228083  4794.72843241799 -0.05885071323713459 0.04452732986241165  4562.108733408277 -0.09600803343594655 241.5432314005297  3885.53080818924 -0.1187875343070812 457.5766358180944  2827.490171992825 -0.2001556159494635 626.0850775781904  1488.373517049687 -0.2644563245930774 732.5559325641947  1884.068024106394 -1388.533281074652 -655.1017876609318  1872.33887892336 1078.578449526593 674.7234925735577  4564.169282941745 -1234.383675331853 -105.570581054722  3293.005878730974 -1348.231160736871 531.912679443963  4154.393272888408 1248.85021795719 316.8441115934973  4137.323010938866 1248.860978084974 -345.2850471921935  2103.598227418374 1243.286327557338 -677.4895386901974  725.4634056306805 -1243.818691523186 748.1372706125744  3271.899692259683 -1242.150236533241 -515.7806824612759  2277.506669930701 -2437.0079666004 -519.8781388368114  3379.799196703897 -2387.394927158101 -355.1418753640659  2316.696254149618 -3411.82492367612 -330.563762140484  3261.831907038581 -3200.99938170085 -151.4211478315262  2046.17581730049 -4059.8055511714 -116.906776769998  2913.319101049672 -3643.575246590057 69.33601458492001  1529.94577949935 -4336.938361019543 106.5305844867582  2220.732711763477 -3769.291005240904 296.823199186061  799.9486670895852 -4223.422519623157 317.863484931228  1422.957863621916 -3447.532709315089 495.011054017401  -55.29557599912406 -3703.003204632118 498.4377969739364  3405.908873349039 -2961.450655742198 248.2002662734199  3272.03203841269 1242.109862416205 515.8383754692021  3311.373568445869 2403.187019390692 367.7318933338895  4006.26109506835 2301.967314591098 157.560801363518  533.0382181555873 -2753.961383099337 645.0944423708679  1951.799567087795 -2414.70512004881 606.2170682500546  2277.665562072257 2298.182709869373 537.704488277868  2191.364471857281 3359.424628044123 363.3063705310084  4572.992198164564 -1204.338814251931 126.2013467096376  4031.047189812245 -2488.059077510558 34.44993003913538  4163.682808857645 -1249.971680914228 -313.5935221238815  725.443377033309 1243.847113425354 -748.0326457893265  3239.665540304309 1211.316098846934 -548.6584896845213  3286.168453141804 2390.49501995634 -421.1111535625504  993.5367555352394 -4097.655909344962 -276.7366763205214  -695.1567108850434 -4273.529891137637 303.3537900543388  972.4930506506608 -2500.428766427921 -601.4723030079311  3979.016903946031 2329.565705699675 -203.4045953247634  2975.270928960997 3364.642852512056 -249.8610336898059  2114.93963508024 3276.307200982519 -457.2107310169735  1667.757067475232 4077.503566452309 -273.6518945714787  737.5341542160799 3830.727380902329 -451.0345663226344  215.5317906722361 4413.775278899323 -254.4905545713802  -755.9446342870813 3940.975543883525 -419.816578494656  -1246.036692919656 4334.624094872583 -200.2874230378961  -2197.354940893851 3703.560893901731 -327.2343290479753  -239.7226608336619 4589.672537541535 -24.8422944156839  -1533.077618487132 -3559.534334575257 460.5599099897556  -2115.01394570521 -3933.998521952202 246.2357812173851  -2578.275546828077 3847.454608643312 -112.3444145309368  -3407.094396762659 3010.699533401429 -228.0120224466883  -3627.970671298976 3003.486048576397 -7.302810286576927  -4257.139651832838 1982.115058052167 -143.0054729550041  -4315.376045826502 1881.410655178097 101.7733021263615  -3785.202488330385 1879.532214736541 -375.7825945027875  -3490.696995560362 2780.006994182711 228.3141519656142  -4505.17968773568 822.0374077665858 -236.3383093352789  -3989.88061433567 1547.231483348402 330.8307530287883  -3839.877790156826 528.1440202059629 -464.2990855167461  -4308.110468462177 -597.0454457913842 -323.0081407781711  -2970.449182285298 2332.780762427549 443.5615280602491  -664.9536830672421 -1909.277668500805 716.7238988674768  -2890.849420529893 -3043.915279481604 376.3059211343918  -3452.312764668677 -809.1219971743255 -514.459059606394  -3725.20386397467 -1898.228773798024 -353.9053694256818  -4608.121721532485 521.7287101130561 193.1043455241686  -1605.950651516293 3069.756242804034 -548.873567577733  -3287.908114367233 996.5265888091121 530.2906949746343  1033.427690857608 3101.769079876657 514.8499721793503  -4438.851241236126 -1554.479140440124 -119.4173117210988  -2799.949728955979 323.6100834646587 -630.5591169343847  -2181.124464842793 1776.225001736815 601.4346955225129  -2687.914849433677 -2043.058316276955 -521.6240299757658  -2810.448906473538 -3039.728182651636 -337.1514011367928  -2368.162472426414 3422.62241273112 318.7050301775162  -1207.773494406421 -4438.408139483649 88.27373345808478  -2298.74329465144 298.9572107185408 673.0484953969391  -3391.804050075927 -432.0975295992263 549.6807873315386  -1624.005993748949 -3049.821166410389 -486.745979650666  -1626.89257455778 -3885.041226578765 -286.5877826480359  -1401.791778655743 -1932.784828676014 -641.1701610431514  2430.054981829785 3960.193382509152 -55.61837958874406  -3268.923865636714 -3263.528020164902 166.6463878561662  -3937.738016218776 -2204.858041792072 261.8190292554094  859.0729456558099 3990.298390423046 323.4252361922799  -310.5732279711648 3600.451235744415 444.1163956240268  -107.740456816911 2715.015419807591 593.4764816558154  -1304.448326864129 1147.788158055675 702.6148038575785  -2171.036891090231 -2491.391645611371 576.7788088807222  1133.11479763113 3033.054634535179 -586.3831276291235  -2687.002420529338 -3673.424765538451 -138.3507110487909  -356.2694632611143 2328.384763840879 -691.2024182797819  -790.4251110849882 999.1314324314815 -753.5729989501539  -533.616823405881 4294.551010282555 225.6985149381202  -1017.712237604563 -707.4499836862519 752.1402630862028  -346.8709551296853 -3769.767253598515 -404.3887776073173  -2196.585823087737 -1135.806617781429 674.0035198359814  -3379.800681828076 -1826.724146928806 476.6714254923548  -4204.52911343634 -877.7719121373981 353.6402775591825  -4596.321097120248 -1139.049417904739 119.4788209192882  -4774.001261645244 -148.0921290496139 -66.80640520358068  -1847.534488211091 1978.120731315464 -654.772075760785  -2798.675386150022 2186.714885030412 -534.908952881788  -407.9091392748036 -4327.210872116788 -215.9995742522073  -163.4577459226153 3400.465690918331 -557.7325862098515  1911.61038527201 4041.736546535491 168.2416691289167  4136.13920090346 -1194.82977192881 350.7984654677939  240.4910282291325 -1304.662626629586 -720.9181301379417  757.4962103561742 -4483.340102321599 -81.39715687415024  -1463.20621614662 2940.173998489246 516.3467257524883  4583.676412187343 1157.329936880163 -128.2724067396134  3063.262707304287 3333.916940014992 171.881304560707  3612.848234400718 3021.481974229192 -34.31212281383833  -3660.9492960707 -2733.3325496814 -173.6709867575125  -1587.837583166567 4322.37889220803 23.76049101385058  -2664.528651685292 3728.435970845745 110.7032743363699  -260.7810020009616 -2814.862502724758 -578.8289073005117  -1122.484090275323 -513.9225853578441 -737.2698861017483  -2363.878252080089 -824.7102909845252 -649.2049308492551  1106.942967638586 4465.993884772586 -78.21045755673879  129.566129068681 -4566.361697028117 126.0482746595277  2650.691852225911 -2907.198928846399 451.7200017692792  4591.648141047414 1172.131028757775 95.24671647888641  2104.700710221258 -1234.313102908944 677.7741719381966  -4054.721372776453 -2451.002671773561 39.96777108608344  -860.3127610698891 -3037.406454269638 598.4875902400405  2341.842407378796 2228.456008955134 -587.5740596148379  -4112.96577574762 366.8612771969386 393.6570160331306  1077.986369364218 -3426.356122254251 -452.9482943926267  1178.394323717841 2211.51397380437 624.9448344931575  682.6496969843803 4446.239751806854 125.1134635578702  -2984.626101425215 2884.104493747136 -392.8655510076535  4010.69564946234 -2216.936305990327 -184.9406136943311  -73.75363551096149 1198.294602721556 727.9177591584782  3635.102722528016 -2158.512359520103 374.2295018801937  -4655.030163376793 1096.324201581511 -27.08351936313208  -2477.19181543445 -3935.426872704957 41.14199628586979  -1512.85546808068 -4294.98117437669 -92.23670083767055  4301.04791694719 2031.644995294683 -22.44631187882237  -1073.806549233072 2268.857797461469 623.545407800609  1336.414239954486 2060.933747323336 -680.8497200501847  -1623.580702622371 338.9058806830208 -727.5823034873542  -1753.118007115522 4022.844758968509 211.7782738992637  4079.213615487082 -2062.100820918648 232.8957268249649  -326.6437393446731 -4562.565545142276 -39.06221527726367  -3082.80697825162 1197.256859576881 -572.8817748413392  -2109.315444904838 1018.085737450818 -685.056572845737  -1342.064040784962 3700.53002785796 371.9262111031416  -3370.506741876175 -3259.363809998259 -16.01136462384782  0.01597185722498828 0.01223214774143326 -0.01890370822105544  -1534.921977570137 -1802.94517451241 42.6087026816864  2321.15395552473 703.1794683589183 -11.82498291411745  -924.8905717390106 1895.091315574701 147.2410221927605  1730.4488945116 -1343.63613576712 170.7033203711715  -1128.460239917844 196.9387253216596 -345.1718496417665  -2387.41825016263 357.8702379558694 -3.880327737776263  456.1811082487596 2143.61368953188 -173.1940653395844  1613.194617167881 -1056.428695607419 -218.1382119838074  -1255.412675370232 -200.9861694699967 335.0172907407302  1203.122547212376 1595.002444484496 249.2955288414541  -444.2461020715673 -1820.265526446269 -269.4613755668184  396.9938481623283 -2627.920720303458 31.5962535304285  958.4868373987198 698.6374633043289 -390.3364548075635
[...]
<PointData  Vectors="Centrifugal"> 
<DataArray  type="Float64"  Name="Centrifugal"  NumberOfComponents="3" format="ascii">-2.6685485090011811e-09 -7.9150215710360286e-06 4.4124387484971912e-06  -1.0971972410566407e-09 7.9150184524932002e-06 -4.4124370099827642e-06  3.5981526594817292e-05 7.5410096356270989e-06 -4.2039358731243865e-06  6.8356695094669019e-05 6.4410092137755672e-06 -3.5907114565918518e-06  9.3935806673868980e-05 4.7073006366419214e-06 -2.6242096175646375e-06  1.1029265203148767e-04 2.4836772772419606e-06 -1.3845917864542249e-06  1.1591752958548004e-04 -1.5332033118279561e-09 8.5472485975827224e-10  1.1029338073004203e-04 -2.4855481327640028e-06 1.3856347444959807e-06  9.3935694769885938e-05 -4.7075613361886308e-06 2.6243549514429254e-06  6.8356027739929095e-05 -6.4421186695839966e-06 3.5913299521644574e-06  3.5981891589861131e-05 -7.5384397207971374e-06 4.2025032059264174e-06  4.5548178662517274e-05 -1.8872867708491398e-05 1.0521180773144558e-05  4.5264535093319188e-05 1.2954292953416815e-05 -7.2217142649629612e-06  1.1034347161206857e-04 -2.1681624531764331e-05 1.2086996776409482e-05  7.9610701202060071e-05 -3.0336571450841039e-05 1.6911926539288447e-05  1.0043623154378321e-04 1.9775784452479424e-05 -1.1024535665115901e-05  1.0002351231964976e-04 2.6584716859738675e-05 -1.4820355666369075e-05  5.0855454254701088e-05 2.9898006318277858e-05 -1.6667436771661869e-05  1.7538312436598464e-05 -3.0634370830719449e-05 1.7077942703775260e-05  7.9100402700668166e-05 -1.7606155570865439e-05 9.8150184880402817e-06  5.5060269723715298e-05 -3.9601852651368926e-05 2.2077103338620917e-05  8.1709607213507543e-05 -4.0381326796938779e-05 2.2511641879355987e-05  5.6008284778785714e-05 -5.9528856299882933e-05 3.3185940156186187e-05  7.8858201888098696e-05 -5.7482843824277172e-05 3.2045336223998806e-05  4.9468526650038576e-05 -7.3677865566407495e-05 4.1073680723933830e-05  7.0432691740379962e-05 -6.7915990822110952e-05 3.7861570793778137e-05  3.6988171394257340e-05 -8.1087083042461326e-05 4.5204145561454562e-05  5.3688479917338066e-05 -7.2573775354420057e-05 4.0458176345394109e-05  1.9339578799982541e-05 -8.1166242799327845e-05 4.5248275267910209e-05  3.4401174202022197e-05 -6.8676791692179226e-05 3.8285699421710642e-05  -1.3368150909387937e-06 -7.3423965153262234e-05 4.0932137203026528e-05  8.2341286794603233e-05 -5.7173798106976554e-05 3.1873050490367398e-05  7.9103581127368887e-05 1.7604826503247274e-05 -9.8142775640383661e-06  8.0055321339618494e-05 4.0543112948847223e-05 -2.2601833861682776e-05  9.6855455232463996e-05 4.0837727630913952e-05 -2.2766074631889144e-05  1.2886516466582712e-05 -5.7427584958526093e-05 3.2014530703350598e-05  4.7185941616444000e-05 -5.0770626245394880e-05 2.8303432469524537e-05  5.5064047025938082e-05 3.6857995184203914e-05 -2.0547467203101566e-05  5.2978198557752190e-05 5.8225575405120163e-05 -3.2459391647301425e-05  1.1055676199901161e-04 -2.3510758543809542e-05 1.3106696055622680e-05  9.7454824380031977e-05 -4.6244541832001141e-05 2.5780246643005895e-05  1.0066080034573226e-04 -1.9829892779037109e-05 1.1054699787168736e-05  1.7537831653700172e-05 3.0633822479737138e-05 -1.7077637010973249e-05  7.8321070836934528e-05 2.7983505176004598e-05 -1.5600147321040339e-05  7.9445948429021120e-05 4.8420833021751941e-05 -2.6993477900493505e-05  2.4019744624003999e-05 -7.2732111762330409e-05 4.0546445176412499e-05  -1.6806099524405672e-05 -8.1941238400070132e-05 4.5680317125021958e-05  2.3510537484613949e-05 -3.9932121407009917e-05 2.2261220417990777e-05  9.6196780103541564e-05 4.5058537804663909e-05 -2.5119077235047938e-05  7.1930237297181251e-05 6.4627477809747812e-05 -3.6028301975688359e-05  5.1130468652104158e-05 6.5130072572072885e-05 -3.6308486759036336e-05  4.0319765557474813e-05 7.8020315580687357e-05 -4.3494494683119765e-05  1.7830539692191779e-05 7.5292411419462582e-05 -4.1973752141213935e-05  5.2107304841439168e-06 8.4025627290618222e-05 -4.6842315007787958e-05  -1.8275648061324453e-05 7.7004895851059645e-05 -4.2928422017266977e-05  -3.0124280567280873e-05 8.2008427594709320e-05 -4.5717773524002720e-05  -5.3123208594036561e-05 7.1674077846349557e-05 -3.9956616101886402e-05  -5.7955436257725855e-06 8.4908639433112573e-05 -4.7334573551617154e-05  -3.7063461497166837e-05 -7.0388369857222517e-05 3.9239864075431257e-05  -5.1132684076541497e-05 -7.5091541454129853e-05 4.1861771850258524e-05  -6.2332609438924157e-05 7.2118620312017426e-05 -4.0204438092421942e-05  -8.2370001462984599e-05 5.7874544121496478e-05 -3.2263699945908667e-05  -8.7710111916770297e-05 5.5472064461682547e-05 -3.0924373925341446e-05  -1.0292073489169226e-04 3.8029030786104485e-05 -2.1200292065209820e-05  -1.0432867744686436e-04 3.3654569919352169e-05 -1.8761632807113116e-05  -9.1510653017120788e-05 3.8530474448386542e-05 -2.1479835137301787e-05  -8.4391068035918288e-05 4.8927133202899883e-05 -2.7275728367863475e-05  -1.0891713713917429e-04 1.7592015111308235e-05 -9.8071355137348122e-06  -9.6458959994520337e-05 2.5135310077589093e-05 -1.4012345405058544e-05  -9.2832014486428165e-05 1.4515564773127769e-05 -8.0920866590747845e-06  -1.0415251122839282e-04 -7.6904378692635671e-06 4.2872386060733114e-06  -7.1812918000052829e-05 3.8464543296461886e-05 -2.1443080067606202e-05  -1.6075516028800231e-05 -4.2584894871474371e-05 2.3740079359881994e-05  -6.9888945946270498e-05 -6.0011926093638115e-05 3.3455240227836549e-05  -8.3462041034894403e-05 -9.6330171855867540e-06 5.3701809796910793e-06  -9.0060102371676093e-05 -3.1371808700915778e-05 1.7489047007643561e-05  -1.1140593589638228e-04 7.6371335169892940e-06 -4.2575226808130182e-06  -3.8825026843936628e-05 6.2262816694365491e-05 -3.4710058905984120e-05  -7.9487354600822236e-05 1.2926647759492017e-05 -7.2063027182237809e-06  2.4983819338808444e-05 5.1914395663244150e-05 -2.8941057074002282e-05  -1.0731383291940323e-04 -2.7443135640859565e-05 1.5298903988475518e-05  -6.7690246716452834e-05 1.2453036300346232e-05 -6.9422754461169927e-06  -5.2729863436914363e-05 2.6575430509200146e-05 -1.4815178743908339e-05  -6.4982165025481231e-05 -3.2317913684451668e-05 1.8016478329470496e-05  -6.7945154450401268e-05 -5.2598066470972349e-05 2.9322187502537783e-05  -5.7252540131414794e-05 5.9849946235950267e-05 -3.3364940259084271e-05  -2.9199275543315079e-05 -8.2770891053159245e-05 4.6142829005934517e-05  -5.5573093819036197e-05 -1.4075850112469245e-06 7.8469560565163041e-07  -8.1999078084244784e-05 -1.3622180644911482e-05 7.5940459766514780e-06  -3.9261529585905906e-05 -5.1245386611190959e-05 2.8568100230122374e-05  -3.9331715078066178e-05 -6.8709261215417524e-05 3.8303800418807862e-05  -3.3888956109101008e-05 -2.9054199273875897e-05 1.6197034149816995e-05  5.8749249154593946e-05 7.3614759200025238e-05 -4.1038500405876305e-05  -7.9029683144168911e-05 -6.1906819654557985e-05 3.4511598912072661e-05  -9.5198708628046086e-05 -4.3359025186082938e-05 2.4171638840283712e-05  2.0768908964066350e-05 7.0271743185094457e-05 -3.9174847443121673e-05  -7.5083299651656889e-06 6.1839781523579198e-05 -3.4474226727536928e-05  -2.6046788481524420e-06 4.3972206292412099e-05 -2.4513472914787575e-05  -3.1535489557533328e-05 1.3943833925972278e-05 -7.7733601311608680e-06  -5.2486276533611716e-05 -5.1882323666555860e-05 2.8923177688626095e-05  2.7393817428434925e-05 6.1971534909444653e-05 -3.4547676147708549e-05  -6.4961134242924614e-05 -6.6330748631807530e-05 3.6977835480681337e-05  -8.6129890414820497e-06 5.0052392637396684e-05 -2.7903034091079017e-05  -1.9108759598018136e-05 2.6177343301957412e-05 -1.4593254469570694e-05  -1.2900721255257135e-05 7.6888663733590062e-05 -4.2863625339918891e-05  -2.4603493980497784e-05 -2.0782919400426717e-05 1.1585989759637936e-05  -8.3859004535650221e-06 -6.5371339785908402e-05 3.6442987567848375e-05  -5.3103497132022908e-05 -2.7879819090232115e-05 1.5542344761889191e-05  -8.1709321636903336e-05 -3.8593842705432509e-05 2.1515161453257525e-05  -1.0164827825677816e-04 -1.9826207724414539e-05 1.1052645455710371e-05  -1.1112084570682236e-04 -2.2237420032179862e-05 1.2396839722542223e-05  -1.1541644607116531e-04 -2.0444860756340013e-06 1.1397530000299920e-06  -4.4665096673476814e-05 4.3217555190934062e-05 -2.4092772638499810e-05  -6.7659972092615493e-05 4.5832365634441009e-05 -2.5550468087255911e-05  -9.8615981496238335e-06 -7.7590793671615660e-05 4.3255046300331663e-05  -3.9517038931021863e-06 6.8453554911340582e-05 -3.8161250156093136e-05  4.6215211726941478e-05 7.2816651971275472e-05 -4.0593574358614633e-05  9.9994860667499609e-05 -2.5644852975866168e-05 1.4296403611116593e-05  5.8139722780072474e-06 -1.6648858184927094e-05 9.2813476645763742e-06  1.8313316899801135e-05 -8.1854862505821734e-05 4.5632164591349440e-05  -3.5374014554453804e-05 4.8918519038920271e-05 -2.7270926173632069e-05  1.1081507767707373e-04 2.2665021200347085e-05 -1.2635217337358610e-05  7.4057564459463992e-05 5.9723995505199383e-05 -3.3294725682942038e-05  8.7344503274586376e-05 5.6081755089652548e-05 -3.1264262140086809e-05  -8.8507198165753255e-05 -4.8628217489373620e-05 2.7109089873569948e-05  -3.8387734965627323e-05 7.9478745668912684e-05 -4.4307535225776935e-05  -6.4417841236238252e-05 6.7629755869950587e-05 -3.7702001526309819e-05  -6.3045313410836551e-06 -4.5964432127561892e-05 2.5624092057373359e-05  -2.7136379953004025e-05 -1.8965564824143305e-06 1.0572857239380937e-06  -5.7147850488464384e-05 -8.5345436099787172e-06 4.7578077441019376e-06  2.6761608601017063e-05 8.3176220253971411e-05 -4.6368790521706872e-05  3.1324328951116985e-06 -8.5519342393841096e-05 4.7675026118114541e-05  6.4082729121657189e-05 -5.8265701890852194e-05 3.2481761221268544e-05  1.1100782349785932e-04 2.0639586329592300e-05 -1.1506084936888568e-05  5.0882120318270177e-05 -2.9735435439816971e-05 1.6576807322700806e-05  -9.8027190108992122e-05 -4.5617794040468835e-05 2.5430849459931634e-05  -2.0798618275928633e-05 -6.2176252645840943e-05 3.4661801480719024e-05  5.6615550290407621e-05 4.7143765707860147e-05 -2.6281542847672471e-05  -9.9434429175328506e-05 2.7183554232645490e-06 -1.5154193446158533e-06  2.6061174494389488e-05 -5.8537891840517424e-05 3.2633500729503025e-05  2.8488265488060829e-05 3.4361938951338574e-05 -1.9155974439439842e-05  1.6503825687007679e-05 8.0720989669637053e-05 -4.5000057098862235e-05  -7.2156012606394395e-05 5.7234608815501181e-05 -3.1906951033051880e-05  9.6962581594737035e-05 -3.8987819061373390e-05 2.1734794024482170e-05  -1.7830095569935610e-06 1.4615036528339105e-05 -8.1475398278547046e-06  8.7881864209475460e-05 -4.3660045654976041e-05 2.4339450686292453e-05  -1.1254022224496800e-04 2.0499291910925751e-05 -1.1427874091401130e-05  -5.9888856069877719e-05 -7.3009034978756808e-05 4.0700823369769507e-05  -3.6574947543443792e-05 -7.8269220830880944e-05 4.3633253517925335e-05  1.0398235004367206e-04 3.7702901354222067e-05 -2.1018482561679361e-05  -2.5959803038774468e-05 3.5433985501138714e-05 -1.9753615228422761e-05  3.2308446608504278e-05 4.5013117417094959e-05 -2.5093756435062434e-05  -3.9250604481682644e-05 1.3733041527784846e-05 -7.6558483167831751e-06  -4.2383421077583646e-05 7.2020403779246765e-05 -4.0149684680690803e-05  9.8619041678250707e-05 -4.0428596938142830e-05 2.2537993873576565e-05  -7.8969413264207813e-06 -8.3751478088764668e-05 4.6689483262445048e-05  -7.4528799468704605e-05 2.7973286817719560e-05 -1.5594450826136554e-05  -5.0993638891659295e-05 2.5822270774476986e-05 -1.4395309869581932e-05  -3.2445576648234776e-05 6.4428297917411227e-05 -3.5917263860759721e-05  -8.1485639790224173e-05 -5.9951797778420720e-05 3.3421720103403987e-05  3.8384464070604552e-10 4.1722385266037862e-10 -2.3259250495568353e-10  -3.7107366528937358e-05 -3.3691223358077557e-05 1.8782066238891678e-05  5.6114822040884031e-05 1.3090852422840173e-05 -7.2978429639121519e-06  -2.2359564574987649e-05 3.3438321564431076e-05 -1.8641079424915782e-05  4.1834240789669677e-05 -2.6537113277450879e-05 1.4793817786570708e-05  -2.7280767687345554e-05 7.1819985421459091e-06 -4.0037956150341858e-06  -5.7716774090040366e-05 6.6403697975849851e-06 -3.7018503027755031e-06  1.1028346695098449e-05 4.1317318993250791e-05 -2.3033435559667799e-05  3.8999496517727937e-05 -1.7241133751256510e-05 9.6115273912145655e-06  -3.0349910124167261e-05 -7.1522139947957540e-06 3.9871914289742094e-06  2.9085899150843537e-05 2.6854034463105361e-05 -1.4970493908960377e-05  -1.0739806057815096e-05 -3.0801310677562939e-05 1.7171007750063404e-05  9.5975258569940607e-06 -4.8793765816559783e-05 2.7201379180310247e-05  2.3171659073835610e-05 1.6899616317246721e-05 -9.4211394376773758e-06  -9.1441014182154353e-06 -4.0995595605307455e-05 2.2854082322216879e-05  2.0318984166983441e-05 -8.8340529757479937e-06 4.9247771855870442e-06  -3.9258733804631753e-05 3.8660384104176714e-05 -2.1552256721231536e-05  -5.7796060824568710e-05 -1.5537151919551660e-05 8.6615975150328494e-06  5.8862556420325552e-05 -5.9919665395404894e-07 3.3403807054068536e-07  -7.8642435433229204e-06 1.8624090909803245e-05 -1.0382493547038238e-05  1.2071236815905709e-05 5.1043101398194866e-05 -2.8455330971812580e-05  4.9878628252520495e-05 3.3284516441094149e-05 -1.8555336678691061e-05  4.9835352768915526e-05 4.3122212825207142e-05 -2.4039621507434623e-05  -5.7296507100873386e-05 1.6941227616439317e-05 -9.4443367602979869e-06  7.0385366324616662e-05 -1.5847885196097292e-05 8.8348240233338361e-06  -1.4066648298279278e-05 3.8295583601840253e-05 -2.1348889003590638e-05  -6.7701790822988361e-05 -1.9763815900653392e-05 1.1017863478392664e-05  6.6203537249510670e-05 5.7041780941129153e-06 -3.1799454019047189e-06  4.9004737663048978e-05 -4.1988369281479112e-05 2.3407530344804397e-05  -6.3012712179668902e-05 1.8428896473196306e-05 -1.0273677230134266e-05  1.4585015917858520e-05 -1.1999310885129751e-05 6.6893341767456837e-06  -2.2688185842626532e-05 -5.2251379176299840e-05 2.9128917473025456e-05  -2.1984261980182087e-05 -5.7647663297177280e-05 3.2137219211581939e-05  2.6161080148745367e-05 -5.2205342099394703e-05 2.9103252883209641e-05  -5.7152040744032535e-05 4.1439393305034456e-05 -2.3101489123220978e-05  2.2068057216081207e-05 -4.5953712046557986e-05 2.5618115863829945e-05  -1.5776823796644666e-05 5.7753094914209732e-05 -3.2195994863440279e-05  -3.8280703197432662e-05 -1.7167948945076072e-05 9.5707285795254782e-06  6.5957352631886099e-05 2.5737963889665686e-05 -1.4348310760107870e-05  8.3222292104862177e-06 2.5046484668352019e-05 -1.3962827324273614e-05  2.4752141317554131e-05 1.5229124406050470e-05 -8.4898794061208960e-06  </DataArray> 
</PointData> 
</Piece>
</UnstructuredGrid>
</VTKFile>