<?xml version="1.0"?>
<VTKFile type="UnstructuredGrid"  version="0.1"  >
<UnstructuredGrid>
<Piece  NumberOfPoints="201" NumberOfCells="657">
<Points>
<DataArray  type="Float64"  NumberOfComponents="3"  format="ascii">0.02095141985587939 -0.01736570103242305 2659.589253698751  -0.001649176852146673 0.003147822683025268 -2659.58946981328  851.9441724159391 0.002528530188780978 -2529.412649796704  1620.474659398907 -0.01780009256676148 -2151.676309027889  2230.396332214647 -0.002717095473370763 -1563.24821772054  2622.020809091411 -0.003604573523059742 -821.8569805775228  2756.98824145221 0.00598336483909159 0.03639309830617705  2622.035166753823 -0.01139527358728981 821.8945078992086  2230.43767471138 0.001117163528106892 1563.278205714901  1620.522158331946 0.004857024470097298 2151.646779032362  851.9369561915663 0.008174068575982719 2529.400987687503  1079.474277856926 -136.7047588891702 -2312.536003027941  1072.409840413368 106.1980299074887 2369.908335553631  2624.48394757396 -121.7191617779248 -394.2977208265438  1889.698946973716 -132.78968824129 1773.560242289735  2387.119791724054 123.1060120283647 1118.440461977455  2377.191336904629 123.10500197446 -1137.897416844255  1205.320825809941 122.3638113566782 -2282.053322298062  415.3320608582445 -122.3700612598879 2529.646668085601  1877.362740283152 -122.3653198184274 -1811.032098539288  1307.176980530396 -239.804180958108 -1872.130832761431  1942.227360839777 -235.050259852234 -1289.387345843113  1332.338695496966 -335.4205044953553 -1238.931365717719  1877.107906243139 -314.9420970811277 -610.0631021787633  1178.388651602504 -398.7102946419156 -518.4357787148979  1677.486372934555 -358.2115601542784 131.1295702391666  881.4801671247395 -425.6822566626695 236.6425836743786  1278.159788550302 -370.3673114700283 897.4934887090764  460.5339631256427 -414.5174967158684 954.6035205682373  817.7998500511447 -338.7670336678432 1576.543683463386  -31.76188620550906 -363.6770987436008 1579.811514859257  1959.343743134856 -291.4553968743952 757.136573367426  1877.403392407587 122.3736567708501 1811.04531017044  1902.828606324569 236.6103089638934 1333.608950509932  2304.275549840932 226.7786171166571 603.5886959452062  305.7857262785962 -270.7294032954198 2112.255742290418  1119.778403674714 -237.5093718568515 1991.401662110142  1306.999464158619 226.1585064836624 1929.955171822324  1259.99280459668 330.264138281299 1352.395282912634  2629.523279097295 -118.7536057947905 394.2530703977881  2319.217865331617 -245.0690786352222 45.67890805136367  2392.436512187832 -123.2198499018482 -1107.416221695726  415.3491689018157 122.3570606757635 -2529.661856892853  1858.653392196692 119.2910256873418 -1835.841149323126  1888.205248047492 235.3465551219526 -1360.336784166548  571.8627637245874 -402.2787817747738 -1075.050858255809  -400.139160590563 -419.3895136746041 903.7320814018152  557.7034969293227 -245.8972302174411 -2168.58123386631  2288.565716832651 229.4768154210195 -623.7438302304913  1712.144122312339 330.9003064116437 -751.0741910838329  1215.635901654842 322.1042770345767 -1454.869340529453  960.1778625187754 400.3757868353328 -810.0437043855694  424.1204694337292 376.1855599102429 -1416.086579607721  124.1936819695109 433.0753320013569 -735.2178212902138  -434.8265529597649 386.9151434244109 -1307.283009364834  -717.6674409574719 425.4278314560406 -554.4647365681989  -1264.321284442985 363.9126577279478 -1001.874435650491  -138.0466493117946 450.2051101107554 49.12165409890601  -881.3276487147217 -349.736064021333 1456.623460719961  -1217.634895992071 -386.4444250048126 721.2564327020802  -1484.607608223335 378.0695495870779 -270.7602064734699  -1960.230990631834 296.2643176605005 -686.8654660846753  -2088.025341191011 295.6258203434342 61.45501955978507  -2448.422180951965 195.3394350626854 -429.2000327826461  -2481.895790902446 185.4304863899453 400.4379672785061  -2175.062170266915 185.1750862936148 -1222.127516198552  -2007.730237174214 273.665863929829 862.0707628531787  -2589.663167393032 81.04453226526383 -779.2857338777912  -2292.596136040042 152.4923483759852 1176.585537715846  -2204.282693792235 52.02887781494928 -1568.092155348571  -2475.287916553953 -58.87146172191108 -1119.225441982263  -1705.923541487773 229.6296180444454 1597.471764748281  -380.9151816463118 -187.7862152727837 2393.077005096749  -1662.155687596092 -299.4051110807534 1187.916112469385  -1980.83492177362 -79.7351788596719 -1790.016656222938  -2140.518312445737 -187.0013247136531 -1268.384064958791  -2649.013130807281 51.45130501176305 672.5030634636568  -922.291163123588 301.7658929228267 -1772.239642735477  -1886.239839389666 98.16520763828039 1852.546046124521  593.3243070225313 304.9209827160399 1881.076879208879  -2552.767110147579 -153.2343329222899 -450.857844320273  -1604.814934482489 31.8594409734777 -2154.583787020029  -1250.541757872443 174.8258860187582 2137.407366327506  -1542.566300741505 -201.1248835948001 -1862.617031119942  -1615.840805007132 -299.0067652712866 -1249.300350659929  -1361.983841880555 336.458758648597 1198.418129229223  -695.8582558235651 -435.5165477159374 171.3317468708287  -1316.727087758167 29.46908668243787 2330.31386179943  -1945.634261513808 -42.57059000862827 1867.773444965019  -932.6725734016896 -299.8335069707301 -1778.510508846006  -936.1639504856809 -381.6009554276678 -1101.898053052509  -803.4037796061598 -190.1789349377418 -2286.996999181054  1399.483644065845 389.042751792468 -75.10990424819354  -1881.341725876906 -321.012133949245 471.7836987948601  -2264.280260215528 -217.2147361903064 825.2272506615163  494.3046754721859 391.81005278124 1234.923372647984  -178.4094994280975 353.6470204753213 1648.452821424371  -61.77636172288216 266.978890835263 2148.267996285591  -746.9302582514777 112.9760850941011 2473.115736793787  -1246.032035853365 -245.0691721717046 1887.284424500951  650.4992760026155 298.102561333041 -1901.152681593959  -1546.81678883131 -361.0416716073835 -580.9494159825712  -204.2558830321214 228.9491349495844 -2287.219274172267  -452.4963155177572 98.27012925444218 -2559.615824921989  -307.1849449503015 421.468740891201 903.6143685487923  -582.54718192624 -69.58195361308957 2567.413979150117  -199.4329160028934 -370.2301386749412 -1513.715248195785  -1258.666751985644 -111.7873756151602 2273.879019206578  -1940.735820313463 -179.8852541380098 1567.545516837392  -2415.622416710024 -86.54040775568039 1177.436149292771  -2643.134935841935 -112.3156883254516 373.2053878996256  -2745.093391351711 -14.6114762371792 -231.0282492304869  -1059.169455730087 194.6095368180748 -2174.471596115316  -1606.538915367448 215.2310987325035 -1754.839543364028  -234.7829575488028 -424.6471147824261 -870.9743457273643  -93.86019877297132 334.1091846520769 -1791.365010106753  1100.702098776945 396.9645983935047 695.0383385319186  2376.40256809847 -117.7725852537591 1158.736630902165  137.7857557578332 -128.39081777159 -2547.543945067428  436.4322135222628 -439.8796025721227 -409.9996203968917  -840.032250521053 289.0863980007609 1880.379750091107  2635.680455919659 114.1325258914375 -402.7036593757928  1762.897247380621 327.9098172863861 684.5085402201079  2079.348498660811 297.4008278860445 -30.39720065632244  -2106.038944931339 -269.0944319489105 -672.7345903628561  -914.7126342638146 424.2789819135707 207.2209898596941  -1534.042613805027 366.4332180557287 486.8372221110597  -149.6455471301962 -276.748102858944 -2100.863816363326  -642.5326388979373 -50.61578159851727 -2569.350484041043  -1354.441813559555 -81.23259182675019 -2267.194871549822  637.8643592019373 438.2163055132511 -135.9961385901042  74.7455935503266 -447.9347130031333 295.8453993358478  1523.298310816179 -285.9792281081424 1447.574527978767  2640.350902123819 115.5739396825271 357.4361611236336  1206.027963003701 -121.472648982885 2283.324447440049  -2332.819265364556 -241.4329571762016 65.69363604519937  -493.8050416032738 -298.5545326520078 1942.320373217406  1343.70146366891 219.2891265319571 -1933.903697001229  -2362.117480539837 36.16639562359122 1355.024730253576  619.4327904068248 -336.6784491366643 -1673.167591597983  675.5048551142916 217.5519705105442 2240.821426619562  393.3315660293786 436.2620425477562 559.4746825227468  -1715.719739250052 283.7415649736632 -1248.852446238594  2306.46696598144 -218.4203263191781 -695.2423654639028  -42.19418282465097 117.9222692618865 2567.965676725592  2089.047419610997 -212.5682047432608 1208.031117352881  -2677.008489655979 108.1023203420226 -60.47878572514222  -1426.682073340041 -386.6417907944763 25.66979969592734  -871.4635736006425 -421.5936956582146 -441.1162128237059  2474.062225970764 200.2163372022695 -18.4991618622773  -615.5942815914184 223.2047453113421 2237.783011723737  765.9925636245544 202.7340225211235 -2261.621965899799  -929.5209583674726 33.32123446522477 -2496.308550421664  -1009.194384567847 395.0691636572925 845.6700292791336  2345.630306836936 -203.1837680714553 731.5869823652354  -188.0835747634141 -447.5781365550295 -267.3212086602072  -1768.286773050268 117.903863277216 -1920.17093370666  -1208.479721388294 100.203856642216 -2317.394795162825  -771.7092116093872 363.564391864839 1395.076735108957  -1940.052701564358 -320.6861904443378 -148.8583448283644  -0.015613037399918 0.0007479725155798454 0.01060032918230966  -880.4426535354696 -176.5084733748864 73.77558024605119  1331.081926893703 68.89167729976671 -12.17078397275903  -530.3998262208862 185.5014119671794 586.7370619342819  992.2546017748219 -131.575895959436 533.7360337761069  -646.3799510743792 19.27154440789278 -1185.628481599703  -1369.006287184595 35.0671694472966 0.9843852856391508  261.6147870005452 209.7841678836032 -509.5159174043989  924.6969609769138 -103.4841410724352 -797.7473743392821  -719.2386284104074 -19.67017837023087 1149.946245714087  689.7451538192608 156.2283943264117 927.2979883586937  -254.7228509356306 -178.2500109997203 -1007.345265864568  227.8917299331806 -257.1795835568047 4.93550837782002  549.0972546576364 6
[...]
<PointData  Vectors="Forcing"> 
<DataArray  type="Float64"  Name="Forcing"  NumberOfComponents="3" format="ascii">-2.4699074229669270e-06 -3.4623831567899598e-06 4.0609354390270741e-05  -2.1204845994060977e-06 -1.9383752652127907e-06 -3.8967950302193587e-05  1.3982628151799868e-05 1.8162209178316009e-06 -3.6999638288127020e-05  2.4699129269050259e-05 5.8673010130052854e-06 -2.9672140692701033e-05  3.8018205569348085e-05 -2.2002771476167490e-06 -2.6294595780557168e-05  3.9222088319071164e-05 9.8712280116068768e-06 -1.1505507558280543e-05  3.9708343356469376e-05 -3.1519724106407835e-06 1.4185638102466681e-06  3.9398389987869416e-05 -1.0494192075577487e-05 1.3261572692197735e-05  3.4820702382977554e-05 2.2162512172233874e-06 2.3460075066698045e-05  2.5684296469615303e-05 -2.0856838950006482e-08 3.2216690201049449e-05  1.3273585722845947e-05 1.2741967939824223e-05 3.8606826527408977e-05  1.7356045259092163e-05 4.4390397705822221e-05 -3.4315940547974986e-05  1.5883523746616142e-05 -4.1259204998215017e-05 3.2493592603542249e-05  4.3254652833628034e-05 3.6108111702686245e-05 -7.2364203437549711e-06  2.9995146274017438e-05 4.5072251750195639e-05 2.3770470437438382e-05  3.8891200694025754e-05 -3.9013673591451891e-05 1.5766114088920245e-05  3.5792867274648418e-05 -4.6051293104866885e-05 -1.4141405727417787e-05  1.8654970761647501e-05 -3.9646025453471802e-05 -3.1381422330362573e-05  6.4092934783449440e-06 3.8892080223402133e-05 3.7959186920695699e-05  2.8637811670318800e-05 4.6881739138972379e-05 -2.5141599453849198e-05  2.1522846071772790e-05 7.4647326988824952e-05 -2.8623933455267249e-05  2.9947095524387818e-05 8.6381864716979673e-05 -1.9278478245688955e-05  2.1611531706690246e-05 1.0854036443039646e-04 -2.0887143407071498e-05  3.1411277792746151e-05 9.0677017655196952e-05 -1.1124556319289047e-05  1.8353236894912139e-05 1.3778708861697791e-04 -7.5906849721780626e-06  2.6907494718196068e-05 1.2234079794109693e-04 9.0302398570905906e-07  1.2366429206445358e-05 1.4480768425831415e-04 3.0045784986354947e-06  2.1616688523423528e-05 1.1330661717568079e-04 1.3720621910141906e-05  7.0791306459928876e-06 1.3776380029122736e-04 1.4127550124316850e-05  1.4479210929420907e-05 8.7953621386937012e-05 2.8148301483308948e-05  -1.2975589946888188e-07 1.3153233705593705e-04 2.3004550487972106e-05  3.1174260113032943e-05 1.0609136657992315e-04 1.1023169820648388e-05  2.7101448240521947e-05 -4.9574120520644886e-05 2.5213791332579661e-05  3.0564688965491084e-05 -7.8570967533550418e-05 2.0743589303630933e-05  3.5028787966757460e-05 -7.2701456740537272e-05 6.9712218867410685e-06  5.5471435979940553e-06 7.8328660144145145e-05 3.2381812210503478e-05  1.7029597058772800e-05 8.1941934672291218e-05 2.7177108727456022e-05  1.9161240301435897e-05 -7.9933965030176113e-05 2.8907321176923218e-05  1.7336308003084834e-05 -1.1688395327945833e-04 2.0774036593567109e-05  3.7155471123255377e-05 3.4097683504047308e-05 5.2401530421186828e-06  3.6945733512790979e-05 8.1662623947846655e-05 3.3960795925007681e-07  3.4970248724482700e-05 3.9314666559479545e-05 -1.4094211338817114e-05  7.1826622278056776e-06 -4.8110647652598955e-05 -3.6320935576808223e-05  2.8364149326597255e-05 -3.9976473014455341e-05 -2.6525282820135740e-05  3.1938163631593448e-05 -6.5228562156559197e-05 -2.2622307818783092e-05  8.4863579180600172e-06 1.1734705535494837e-04 -1.6023409260841551e-05  -7.5134494265728809e-06 1.4028807947653361e-04 1.3043814582864446e-05  8.4451491176652944e-06 8.4416672170398470e-05 -3.0978408269864423e-05  3.5942995103812376e-05 -7.0217577518355670e-05 -8.6077651040946606e-06  2.5216751004405725e-05 -1.0653147753244582e-04 -1.1370392808539105e-05  1.9279825262093010e-05 -1.1205430498186292e-04 -2.1679231246944553e-05  1.1833997779237010e-05 -1.3920935855689097e-04 -1.1010915617538129e-05  6.9617309226691695e-06 -1.2382959462176003e-04 -2.0002491682441190e-05  1.7598726420177042e-06 -1.3461305188051595e-04 -1.0301790167181000e-05  -6.6034366197731752e-06 -1.3271651991682377e-04 -2.0176358761745095e-05  -1.2401008191145377e-05 -1.1454092000876616e-04 -9.9240438255415016e-06  -2.0158518153206725e-05 -1.2485035295987953e-04 -1.4110723982423750e-05  -2.2243546518758644e-06 -1.4900722580196303e-04 3.6813392643770613e-07  -1.4737811640460793e-05 1.0643765795335040e-04 2.3656143457978219e-05  -2.2642756323850548e-05 9.9837111557822184e-05 1.1897757699894494e-05  -2.2551395946840542e-05 -1.2840014616287505e-04 -3.9092542852131093e-06  -3.0280438798205306e-05 -9.4691279524283188e-05 -1.0141627793274114e-05  -3.7230950392564487e-05 -7.1156850660954974e-05 -1.4111443913653682e-08  -3.7368745088358943e-05 -7.0770248520025443e-05 -6.9861871172125874e-06  -3.8781430677511578e-05 -6.0012681188679249e-05 5.2554011969860643e-06  -3.3815982911805022e-05 -5.2816750138704520e-05 -1.7934206929946277e-05  -3.1974711270175952e-05 -7.0314234549057522e-05 1.3500886478725017e-05  -4.1062582936466494e-05 -2.2519217560630846e-05 -1.1460957013642662e-05  -3.7323129353293235e-05 -4.2409707083450181e-05 1.7831902064504954e-05  -3.4307400091599216e-05 -8.4185387006875071e-06 -2.5278804306305007e-05  -3.6323143418439435e-05 1.7391815283624072e-05 -1.6652612918863615e-05  -2.3907062303385734e-05 -9.2824377118575264e-05 2.1690876715938322e-05  -4.5768030537713522e-06 6.1925842501060765e-05 3.6046269031703097e-05  -2.7357229886737643e-05 9.7170532142158293e-05 1.7961561511955466e-05  -2.9276897107507332e-05 2.9338765395881111e-05 -2.6124415204840032e-05  -3.3526901891695540e-05 5.7099484287185932e-05 -1.7793133631996911e-05  -4.0007496647994850e-05 -7.9234223116341917e-06 1.0173373153767372e-05  -1.4237119319660922e-05 -9.5954126773080840e-05 -2.7291477509240160e-05  -3.1258173862634377e-05 -3.3314083462378725e-05 3.1354207642563705e-05  8.1749608242518177e-06 -9.9614303645787047e-05 2.6395257643970849e-05  -3.7729363147762720e-05 4.9582336314778910e-05 -7.0417796649599526e-06  -2.3928052320342596e-05 -4.1815867934088397e-06 -3.1546662088265058e-05  -1.8599404551109323e-05 -4.9579847294329879e-05 3.1359092034086673e-05  -2.6509059593024512e-05 5.6046140895270906e-05 -2.8316356920678737e-05  -2.4943713658586835e-05 1.0039673735302523e-04 -1.5229659551948685e-05  -1.9391247504755492e-05 -1.0849291851368940e-04 1.8334174541775623e-05  -1.0560592307213842e-05 1.4281231578634781e-04 2.1333167901659106e-06  -1.8516329936956537e-05 -1.1527969107107256e-05 3.2308612817879771e-05  -3.0299814122321281e-05 8.5408370017097368e-06 2.8709552066191728e-05  -1.4842865113567271e-05 1.0512542749818306e-04 -2.5722590521210790e-05  -1.6438228067343081e-05 9.1486639238437463e-05 -1.9599242534049450e-05  -1.3028936704772254e-05 6.0498260577518685e-05 -3.1508008971018221e-05  2.1275946360844008e-05 -1.2153196650349512e-04 -2.5404710813584136e-06  -2.8266250126326809e-05 1.0786445323351746e-04 5.3702809826498300e-06  -3.6939955783965129e-05 5.5249342713939414e-05 1.2268312431955072e-05  7.2559406694156682e-06 -1.0589454661808520e-04 1.9235959664438446e-05  -3.2376166199405924e-06 -1.2105673510067536e-04 2.2952320311135901e-05  -1.1833087553412993e-06 -7.4593983003964952e-05 3.2242076936556092e-05  -1.2447407871250889e-05 -3.2664929414926495e-05 3.9881537178628382e-05  -1.8767705294363302e-05 7.7064772510096412e-05 2.6667918646990025e-05  9.5698847228339504e-06 -9.7966169884840750e-05 -2.6549198798080180e-05  -2.3587332205089436e-05 1.0737738463992912e-04 -7.1501263313164755e-06  -3.0818814199147356e-06 -5.7426361475469364e-05 -4.0205522785508919e-05  -6.9292003214875457e-06 -4.4931992351121388e-05 -3.7733138469408614e-05  -4.8058490912306006e-06 -1.2901325552535999e-04 1.4185089778330976e-05  -9.2407336735371671e-06 8.7380757587831173e-06 3.6582475695128487e-05  -2.7835613569349074e-06 1.2681018585117062e-04 -2.1731857225640921e-05  -1.7133311656266065e-05 3.4949449558463596e-05 3.0459551406099519e-05  -2.9226871597107725e-05 5.1937497646876894e-05 2.0845920027471516e-05  -4.2307201427564718e-05 2.2618422342847750e-05 2.0013111711517996e-05  -4.3419229314663313e-05 3.6625873699522638e-05 5.1092817620674069e-06  -4.2121351123785089e-05 1.0445963802169412e-05 -2.5683637449902764e-06  -1.6520575351746305e-05 -6.0976779207704416e-05 -3.1551551534509737e-05  -2.4795441016669461e-05 -8.1019002802356144e-05 -2.6304470525080518e-05  -4.8297456621947256e-06 1.4155940958473571e-04 -1.1817355364118385e-05  -2.3840242888069450e-07 -1.0340562060581357e-04 -2.6217720108072066e-05  1.7534717448598454e-05 -1.2221999456666225e-04 1.1214671463813914e-05  3.2190837107184035e-05 4.0801515248189185e-05 1.6685844561386206e-05  2.9825867267444420e-06 4.3587627832150310e-05 -3.7003758656174095e-05  7.1198443944690173e-06 1.5803572280234397e-04 -5.2410092472678179e-06  -1.0945038805347337e-05 -9.5921037764871219e-05 2.5953093136449088e-05  3.7643830462406964e-05 -3.7021706802708643e-05 -5.0215890442381882e-06  2.6075641300831927e-05 -1.0832496022398205e-04 9.9206889718320833e-06  3.4296297775345585e-05 -9.1251017544640854e-05 -2.7240879946473502e-06  -2.9713684807289717e-05 9.3853692266464351e-05 -9.3895638698069742e-06  -1.3218067968569649e-05 -1.3107693099630903e-04 3.3691621630091619e-06  -2.1957029513310503e-05 -1.1543463244324530e-04 7.1313835912105109e-06  -1.8993019499172352e-06 9.0705002715659640e-05 -3.1056240177020472e-05  -1.1706552058892508e-05 1.7590509922006502e-05 -3.8905790569946294e-05  -2.5170553655087906e-05 2.5774307594627663e-05 -4.0122164985120651e-05  9.3792733383934076e-06 -1.5000571654325291e-04 -1.6929349512591088e-06  -5.6880627622926393e-07 1.4977549745627487e-04 3.4492039050542165e-06  2.4693985801643267e-05 7.8003361584966130e-05 2.3296283233761550e-05  3.9738773874337413e-05 -3.9953122033383143e-05 5.5529569842807540e-06  1.8716092289564217e-05 3.8546728271330292e-05 3.2840805930693767e-05  -3.5453219200443496e-05 7.7657071119939316e-05 1.3503701863086197e-06  -9.0820364724803149e-06 7.6856375281703551e-05 3.0947561032796189e-05  2.1269535577929996e-05 -7.2746030047224784e-05 -2.8724796511190488e-05  -3.4625152281629928e-05 -9.2503722748954633e-06 1.9210945401559674e-05  1.0154809038770493e-05 8.8831424528182265e-05 -2.8021602781444111e-05  1.0817454380031713e-05 -6.8265322302258895e-05 3.1971005825595509e-05  6.0710119762877170e-06 -1.4854952768201729e-04 8.0419732996690231e-06  -2.6304019599054050e-05 -1.0189369976292348e-04 -1.5921780123200765e-05  3.4874975350895378e-05 7.8110191127928977e-05 -1.2552497810679137e-05  -2.5000621609946390e-06 -4.0397542165629265e-05 3.8770168580074904e-05  3.0294996670972544e-05 6.9465467258978620e-05 1.5909556805644282e-05  -3.8979443183273297e-05 -3.9274287370086159e-05 -5.3268489112322808e-07  -2.3124787196363593e-05 1.2608677979749722e-04 5.2139925012371311e-07  -1.3616969423159910e-05 1.3203649381281722e-04 -5.5895813500273415e-06  3.9617477826227462e-05 -6.6303900257033070e-05 -1.7074478158891007e-06  -1.0326929855030656e-05 -4.4995336280915934e-05 3.5212090895555894e-05  1.3357222249437147e-05 -7.5530086013990191e-05 -3.1569376038577340e-05  -1.1061588638554715e-05 3.0697184274720761e-06 -3.6545340837643058e-05  -1.3919188834180062e-05 -1.3376267362869297e-04 1.3245438404408797e-05  3.5528272066617773e-05 6.3322250060513435e-05 1.0984643831979235e-05  -2.4116380874588540e-06 1.5175410094985748e-04 -5.2899241288299595e-06  -2.7612332440094725e-05 -3.6539111688458290e-05 -2.8261639617355217e-05  -1.8645760961983051e-05 -2.9516849091528811e-05 -3.1844702837441399e-05  -1.0490419809869398e-05 -1.2167316537424666e-04 2.1229279871402149e-05  -2.8844549653385114e-05 1.1401581263227079e-04 -2.4161931432741694e-06  6.2788143510914829e-07 1.8170299294946720e-05 -9.3365413891778712e-07  -1.0557602833962234e-05 7.0520991715284121e-05 -9.7266751446043834e-09  1.4497086836063856e-05 -2.5602054438814801e-05 -1.3085860904813161e-06  -5.2259747923219772e-06 -8.1480846848078504e-05 5.1896790716635186e-06  1.2022698527772599e-05 5.5484807865760195e-05 6.1856565685128665e-06  -9.4562698830323487e-06 -1.5551054426595101e-05 -1.3304062571561505e-05  -1.7608753041811580e-05 -1.7181643044432942e-05 -9.1642035619988343e-07  3.1280945889387611e-06 -9.6037365982120575e-05 -3.6305411335384261e-06  1.1068367799834552e-05 4.8393670930569127e-05 -1.0294730222091046e-05  -8.8493835582480792e-06 1.5911776561235171e-05 1.2578498348018387e-05  7.5420466437376885e-06 -7.4808136094935105e-05 7.6862583428290363e-06  -2.8091623583898327e-06 6.5852203888343863e-05 -1.3626772626425239e-05  2.9413025365935249e-06 9.0833859041828898e-05 7.6242172749869810e-07  6.1941938468732027e-06 -3.8041508060214807e-05 -1.1874442066980409e-05  -2.1667924391472913e-06 6.9897502101231047e-05 1.1909553760425328e-05  6.6511731717028766e-06 2.4522540814740406e-05 1.4754867352710631e-05  -1.2892003753481653e-05 -7.3923424067021750e-05 -6.3546385423549876e-06  -1.7375926585263922e-05 4.6911582697601818e-05 -1.1123870163013469e-05  1.7806440900451364e-05 2.1230083745369767e-07 9.7823124302642793e-06  -2.5269152519682356e-06 -5.6765249023826424e-05 1.5980893922229689e-05  3.1223751780108898e-06 -1.2177212075013426e-04 2.3010942351302663e-06  1.4820239663315503e-05 -7.7492965010378934e-05 -7.7031724027582298e-06  1.6664725946659013e-05 -9.7583920949094143e-05 1.5980904424916303e-06  -1.6522190069529470e-05 -4.1828518320991745e-05 8.1007271814740111e-06  1.9209536186846193e-05 3.9538578632161703e-05 -1.9871428111037306e-06  -4.9734257441965310e-06 -8.2368816528349852e-05 -1.4717890600963760e-05  -1.9833832675840430e-05 4.2626135558090362e-05 5.8811552626101486e-06  1.9616654246307727e-05 -1.0912297274363840e-05 -9.4980647798770052e-06  1.4178654091617306e-05 1.0105171923080975e-04 -3.1808715613898266e-06  -1.8688778300674592e-05 -3.4313598625754464e-05 -9.9477672090632351e-06  3.7578813778642393e-06 3.5722038103904832e-05 -2.0147277465195285e-05  -6.6027426267492410e-06 1.2081915245136071e-04 -3.4676239156638656e-06  -6.8350473165825688e-06 1.2587908002785158e-04 3.2453326714956690e-06  8.1921275803040065e-06 1.0993359793884024e-04 9.8986684969701490e-06  -1.7803017396723729e-05 -9.3474732617544002e-05 6.0482039204283562e-06  6.7113380427644567e-06 1.0611474227607559e-04 -7.6634143586522577e-06  -4.0311646223333407e-06 -1.2205354518449528e-04 -2.9029004087091618e-06  -1.1704962459992856e-05 4.7541207950536840e-05 -1.7499976740887525e-05  1.9126733928799387e-05 -6.7075553297143945e-05 7.3414795373770429e-06  2.0897620025151840e-06 -4.8081675072028730e-05 -1.9765542316240485e-06  7.6040324242030908e-06 -2.3726489550882044e-05 -1.8503796932895582e-06  </DataArray> 
</PointData> 
</Piece>
</UnstructuredGrid>
</VTKFile>