<?xml version="1.0"?>
<VTKFile type="UnstructuredGrid"  version="0.1"  >
<UnstructuredGrid>
<Piece  NumberOfPoints="201" NumberOfCells="657">
<Points>
<DataArray  type="Float64"  NumberOfComponents="3"  format="ascii">-1.106831809138384 -8.434486945177714 5103.970121626497  -2.908429914040987 17.91356457875708 -5109.492770925349  241.0761165932297 25.49538796450796 -4868.429610070133  427.7711148128599 31.56238985220173 -4166.97892949268  532.4802626255857 -0.5649596997459064 -3052.06215414989  571.4780344945193 -16.8915048293811 -1618.915672342052  585.1381368522815 -23.14135293420944 -0.4695861885074744  570.9982206851128 -2.913845184986517 1617.241529220218  531.8231780525645 11.62994451272381 3044.850901952898  430.2231698961857 4.214756779660331 4156.467584082081  243.3836765004546 -2.805323261629865 4860.775563062362  282.1350384592529 -4870.137550310341 -4518.57414000135  331.9156805571478 3800.739554710126 4596.422809822542  560.1743985464409 -5019.040914146851 -786.2835706581492  466.7603148261097 -5031.95584964448 3496.766444788179  604.0186255222809 4924.424498524679 2212.661595027226  605.1513144961859 4936.546317333309 -2252.879399071982  377.6303331481606 4411.916042975519 -4456.443940678993  94.99379732956956 -4250.261602243087 4917.554410772179  457.3742937313086 -4656.075604399231 -3553.093142766261  347.4695511659511 -8607.120089914679 -3791.246395561517  489.1119878042583 -8887.879285790468 -2620.627712606888  391.1828844578457 -11901.87891243273 -2650.746227112205  523.8408791370658 -11719.7404874893 -1298.842809609044  384.8546705190553 -13896.43838196948 -1165.085992636045  514.1507054894353 -13005.61439199028 286.6809488814193  291.1956474081016 -14567.18473737889 538.603533059308  405.5631814385667 -13029.54852482114 1972.625412682756  111.1202739316453 -13983.88677583463 2164.495169545693  229.1025137151923 -11682.41043503612 3364.72640673168  -94.60221301879982 -12301.3661277906 3423.718485422291  512.4649049017754 -10986.05646996754 1583.340648589435  522.8845942370245 4651.39226048777 3550.112644618778  616.2128916998706 8912.685492016721 2720.852764812399  679.8364780152899 8931.488900542103 1227.313182537478  44.10592480927464 -9342.47886871797 4300.244012511544  293.6718999238882 -8435.552491862141 4020.000995846459  462.3879782851975 8126.830320212625 3895.611388894679  520.9874912092712 11650.95554110953 2884.932825061373  560.2241002557801 -4882.458263689242 783.5052721149933  543.3899497631592 -9623.191536105764 93.064614063406  533.4477486423757 -4933.708420696366 -2195.63584573642  152.8225873786152 4262.400527047526 -4921.732751820824  524.5268896953555 4538.015970544706 -3603.071593020736  610.0698802889561 8843.698363309772 -2774.259300991077  150.844121093319 -13643.31668725175 -2409.057932622721  -262.1856893082833 -14125.26256388282 2058.73776484723  126.0528584056864 -8494.511980465457 -4387.499853475141  673.1445306334339 9028.453905411476 -1270.823499047927  663.6013060574268 12065.84767820047 -1612.627983844893  500.2625965986397 11344.59158461804 -3087.33127899577  477.3067584305808 13774.19176781372 -1814.438063151301  244.7446709772451 12749.01399428551 -3094.684675982954  148.7066485121212 14525.11444736342 -1684.82658185293  -93.75654626097814 13100.7918989148 -2878.806941341219  -218.2155389067836 14436.79524158029 -1269.929124512667  -388.4012400406446 12786.05305641605 -2188.933343646062  28.35550923886042 15071.68029197957 113.1535823957105  -412.3619629092447 -12084.59564969947 3134.083451949323  -577.2797568456413 -13514.259667296 1606.029171194523  -473.7205152342952 13478.60836466381 -602.2093218854634  -532.125771612622 11137.31374706798 -1447.174633307849  -559.035676978415 11256.06980491961 127.8755011122528  -543.649733842076 7828.574143708872 -864.0108109790265  -546.1670847512556 7458.263439793798 805.4877232244163  -514.63541066036 7214.14999266653 -2452.930787700352  -525.6016648492148 10359.71476031737 1792.833936231031  -547.2975631873448 3325.068288634374 -1539.666947270422  -525.3502450748433 6066.348754949775 2335.574948161227  -517.9794355544653 2059.651629700435 -3063.816865505727  -584.2459604095928 -2377.404717244776 -2204.805112229073  -449.0691892754438 8490.559086080631 3244.99117536219  -163.4251405237049 -6488.253160942166 4733.137929405948  -608.9375430543271 -10967.5513307149 2484.109252890994  -522.5905336823758 -3060.170349695087 -3496.84523646767  -617.9272206096874 -7256.053828574151 -2544.081300160723  -560.1246693272871 2105.733232207977 1325.897918973518  -248.9025819117829 10493.52542856373 -3704.876018360513  -462.6193507453345 3723.052529206487 3618.104240260228  277.4771555114177 10463.33953409721 3930.479007413317  -646.4751206220544 -6256.092485835847 -900.7599614784898  -420.9731256449466 1201.478053973778 -4173.729595359589  -321.2134251952496 6330.868540471478 4217.488975768563  -506.1942670274253 -7362.239789509598 -3728.152485380443  -599.0799895191718 -10894.95659383124 -2614.594184019768  -399.9227318570832 11969.35710990512 2568.917551166009  -398.3024131063428 -14786.65572017574 390.351357310056  -357.2354457629295 1063.03094965238 4495.881516982225  -502.3629506149303 -1630.562350367956 3627.168403945537  -390.8543662082252 -10436.9459497773 -3702.348076695385  -458.5901498162248 -13160.33446255572 -2433.517440961039  -295.5908641558829 -6654.296774983657 -4532.751117997806  632.188655180542 13746.77998603659 -169.342871510497  -688.1472743990543 -11979.70580164359 1006.744760565012  -661.0588881978549 -8498.842612213006 1675.256886946108  279.4831573153112 13302.44000118346 2734.225713927333  7.761418391287016 11985.16997069111 3541.766362374006  41.37830080240749 9141.728554481984 4395.534992737031  -190.5273305787596 3993.849527673048 4794.1533257308  -443.8405784130517 -8773.50935320731 3821.989735035095  294.3806925353473 10276.0086224621 -3955.832039515109  -643.3707400037503 -13024.70978317394 -1271.060574110619  -13.56101853702109 7850.946250010804 -4595.300427786898  -113.2810473103826 3429.981779725661 -4957.58647975782  -47.56467121412351 14198.43507917415 2054.522721262696  -188.5838450899811 -2484.145303418234 4943.815264366465  -160.5647072039158 -12538.7808580826 -3289.207253088703  -386.2279618779893 -4025.924984835721 4429.949384408672  -575.3049230336436 -6822.951248241505 3130.537668158659  -591.6072589939234 -3508.008093161945 2318.499782156125  -626.8452480253907 -4646.479664225386 742.2151056566139  -586.9848669864404 -637.3631875942369 -457.3706288659724  -275.3921045754184 6904.531841000426 -4324.320887606443  -413.5236825670952 7889.67763724347 -3536.804428004439  -189.7480237312485 -14276.51522858235 -1988.631024450448  40.44041077380783 11340.82681044814 -3802.699752970398  528.0568854857588 13759.92238763378 1560.43388513467  540.2796495549909 -4717.055650125851 2294.770046182975  11.44150379674692 -4427.721196628327 -4952.510545925768  108.3243093520292 -14831.27285842284 -949.8987776918822  -222.833969494856 10031.22249475834 3901.581027766715  628.1798208341778 4708.350739513539 -798.3362951427798  672.6450675063724 12031.31299550499 1470.292200569012  716.1390840978245 11319.42103937119 -62.04147558435078  -687.1306967782067 -10272.56349022 -1395.001759302584  -302.1834959592929 14526.38047409943 476.8423100264201  -482.1390245395203 13107.319723212 1072.379406812653  -113.9369445612515 -9460.713423458958 -4307.253429630134  -201.0036196152365 -1781.768022284772 -4948.258170764  -397.2983163624385 -2948.911580233941 -4395.096680265625  372.2995231602475 14840.85007018356 -320.2779030111422  -52.2696769605274 -15014.07836474829 684.8828732827366  411.4957198976371 -10380.82661489846 2994.256485471215  628.4759653882037 4763.196884009891 710.5189754990132  318.5688077966223 -4353.248413850446 4457.097805539135  -691.2692184509551 -9528.81397775147 134.7517514741872  -238.2334337142534 -10276.20856935124 4019.717424622585  465.0403724130549 7867.651117717523 -3896.513473337025  -537.3642192214319 1453.38996201024 2649.157807442559  151.812065766 -11522.51684993121 -3556.704694536054  270.5686781707793 7584.356468792761 4487.7000982162  260.9913306543825 14665.99781746721 1289.290907769714  -471.041317375695 10429.91308237639 -2602.793683960474  537.7717251350164 -8577.659064545625 -1411.820053118929  14.75263359209115 4123.433097987105 4972.512524978152  511.7891558015811 -8169.412944337771 2439.369600071331  -560.4424260688654 4479.46528336248 -120.6028533080524  -643.530126986403 -13731.61594505317 54.72004863408962  -464.7445420974886 -14433.41114006904 -1009.03968310854  674.4750397598549 8040.23837509468 -38.67201026995698  -146.0381180892822 7767.221278739121 4488.709172937524  291.7157846998999 7069.860704197699 -4507.615683589303  -260.1724075919723 1216.701358819796 -4810.190841927171  -317.3018120943897 13633.31132533289 1891.854112980365  542.6479356674083 -8032.243212777655 1478.007974726269  -172.2317999860904 -15018.97949308607 -621.8480417369678  -443.9795031292742 4424.243942062677 -3767.120142618744  -319.3237672266831 3607.723838094038 -4507.761572729194  -211.8937382072739 12482.01840952061 3027.389878978421  -712.5793492336361 -11980.72290233183 -322.2733856840687  -1.503246503034239 -11.24605082880903 -0.9092021580923771  -264.7953774622378 -7215.586957069097 148.3869829138046  307.4492321388893 2912.615541727116 -26.13639465413222  -73.55701339390899 7509.964280362436 1181.818425208905  188.3942464236811 -5429.714407167898 1063.729193462353  -140.900237358674 765.7052077510269 -2329.687544405152  -274.23680283973 1488.996110832439 0.8247375806957407  128.4946684564158 8415.057108634315 -1034.301246317208  179.1070615785239 -4271.442100027367 -1586.888511878067  -166.282301519111 -816.8109392719073 2259.893812174837  211.5747123350676 6315.870995365646 1852.681579865385  -114.8202968783969 -7114.82624078399 -2023.834573599538  -11.48033617119414 -10139.0075538714 10.00049743538517  148.9026732060719 2763.333060568692 -2594.002286671908  -111.4137092271872
[...]
<PointData  Vectors="Tidal Force"> 
<DataArray  type="Float64"  Name="Tidal Force"  NumberOfComponents="3" format="ascii">2.2485380624121903e-15 -7.3059430420762326e-16 0.0000000000000000e+00  -1.2005485502853947e-14 3.9008187027186785e-15 0.0000000000000000e+00  3.2018043508464827e-13 -1.0403292970749868e-13 0.0000000000000000e+00  5.7423677363010655e-13 -1.8658083805379295e-13 0.0000000000000000e+00  7.3261354824385827e-13 -2.3804057155167769e-13 0.0000000000000000e+00  7.9354039098309306e-13 -2.5783690278695416e-13 0.0000000000000000e+00  8.1512066388082621e-13 -2.6484875850151395e-13 0.0000000000000000e+00  7.8664107925741297e-13 -2.5559518051682852e-13 0.0000000000000000e+00  7.2626071665486600e-13 -2.3597641144156209e-13 0.0000000000000000e+00  5.8983992003282000e-13 -1.9165060764324387e-13 0.0000000000000000e+00  3.3599420404004338e-13 -1.0917113471278673e-13 0.0000000000000000e+00  2.5644320439246954e-12 -8.3323448072254396e-13 0.0000000000000000e+00  -1.2419842681494412e-12 4.0354515113345586e-13 0.0000000000000000e+00  3.0133825537177646e-12 -9.7910734398822129e-13 0.0000000000000000e+00  2.8906749930257207e-12 -9.3923724064265298e-13 0.0000000000000000e+00  -1.3699004676442874e-12 4.4510764381661910e-13 0.0000000000000000e+00  -1.3737656761110670e-12 4.4636352617752285e-13 0.0000000000000000e+00  -1.4522368082385404e-12 4.7186034259145213e-13 0.0000000000000000e+00  2.0300370877599638e-12 -6.5959903389697683e-13 0.0000000000000000e+00  2.7098014527850000e-12 -8.8046786489102550e-13 0.0000000000000000e+00  4.3243030141097660e-12 -1.4050512217646000e-12 0.0000000000000000e+00  4.6445802217186195e-12 -1.5091155947712670e-12 0.0000000000000000e+00  5.8568040924242863e-12 -1.9029910066075138e-12 0.0000000000000000e+00  5.9578687627029347e-12 -1.9358289085743547e-12 0.0000000000000000e+00  6.7394435156931407e-12 -2.1897779398994252e-12 0.0000000000000000e+00  6.5191778655995278e-12 -2.1182092917804122e-12 0.0000000000000000e+00  6.9103722559464337e-12 -2.2453160542600380e-12 0.0000000000000000e+00  6.3805142234164930e-12 -2.0731547432837202e-12 0.0000000000000000e+00  6.4020261862971394e-12 -2.0801444037282781e-12 0.0000000000000000e+00  5.5358039371346068e-12 -1.7986917336600011e-12 0.0000000000000000e+00  5.3671920449608119e-12 -1.7439064088735957e-12 0.0000000000000000e+00  5.6143376867777428e-12 -1.8242088957380978e-12 0.0000000000000000e+00  -1.3594831900386817e-12 4.4172286514142932e-13 0.0000000000000000e+00  -3.1354240917432200e-12 1.0187610434512777e-12 0.0000000000000000e+00  -3.0563267844591253e-12 9.9306077039567043e-13 0.0000000000000000e+00  4.2356821519436079e-12 -1.3762565581496520e-12 0.0000000000000000e+00  4.1736452714267262e-12 -1.3560995537768552e-12 0.0000000000000000e+00  -2.9958041093209827e-12 9.7339576117456792e-13 0.0000000000000000e+00  -4.4900857330759193e-12 1.4589172924517861e-12 0.0000000000000000e+00  2.9524272484714108e-12 -9.5930176472377791e-13 0.0000000000000000e+00  5.0478256375797714e-12 -1.6401379728002787e-12 0.0000000000000000e+00  2.9384920049858791e-12 -9.5477392964352400e-13 0.0000000000000000e+00  -1.6946178263637269e-12 5.5061470937336705e-13 0.0000000000000000e+00  -1.3065543117999259e-12 4.2452523010213199e-13 0.0000000000000000e+00  -3.1130411761447272e-12 1.0114883933142035e-12 0.0000000000000000e+00  6.3044680968955696e-12 -2.0484458589548346e-12 0.0000000000000000e+00  5.9517777861794387e-12 -1.9338498303325775e-12 0.0000000000000000e+00  3.9694438603511563e-12 -1.2897504933198026e-12 0.0000000000000000e+00  -3.1088685726010614e-12 1.0101326322382944e-12 0.0000000000000000e+00  -4.4793553678920028e-12 1.4554307854557570e-12 0.0000000000000000e+00  -4.3816834284619564e-12 1.4236952485656446e-12 0.0000000000000000e+00  -5.4990133004324049e-12 1.7867377311584974e-12 0.0000000000000000e+00  -5.3607367483461899e-12 1.7418089558584776e-12 0.0000000000000000e+00  -6.2865367174105114e-12 2.0426196005795085e-12 0.0000000000000000e+00  -5.9834964041130106e-12 1.9441558340364886e-12 0.0000000000000000e+00  -6.7517222412643377e-12 2.1937675396821485e-12 0.0000000000000000e+00  -6.2481009477968224e-12 2.0301310619921420e-12 0.0000000000000000e+00  -6.6963171249062162e-12 2.1757653261053050e-12 0.0000000000000000e+00  4.8332809514171057e-12 -1.5704281785438707e-12 0.0000000000000000e+00  5.2453497444851904e-12 -1.7043174456147095e-12 0.0000000000000000e+00  -6.6749417820597426e-12 2.1688200562007495e-12 0.0000000000000000e+00  -5.7089812154503134e-12 1.8549604423248216e-12 0.0000000000000000e+00  -5.7990593579809723e-12 1.8842286050331290e-12 0.0000000000000000e+00  -4.2461962020734183e-12 1.3796727801240106e-12 0.0000000000000000e+00  -4.0841705340469930e-12 1.3270274492868924e-12 0.0000000000000000e+00  -3.9317139609140224e-12 1.2774913058557822e-12 0.0000000000000000e+00  -5.3524996987859104e-12 1.7391325762174943e-12 0.0000000000000000e+00  -2.2386672649432720e-12 7.2738708769244352e-13 0.0000000000000000e+00  -3.4335176213034142e-12 1.1156175025250409e-12 0.0000000000000000e+00  -1.6328371084109182e-12 5.3054093726307527e-13 0.0000000000000000e+00  2.5887219475001707e-13 -8.4112674881381976e-14 0.0000000000000000e+00  -4.4119504585324519e-12 1.4335296027820298e-12 0.0000000000000000e+00  2.6747356440142172e-12 -8.6907429295705278e-13 0.0000000000000000e+00  4.0637230689326017e-12 -1.3203836651331867e-12 0.0000000000000000e+00  6.4879146477798628e-13 -2.1080512565431764e-13 0.0000000000000000e+00  2.3927518934834572e-12 -7.7745221839191698e-13 0.0000000000000000e+00  -1.7113936280597493e-12 5.5606549776450623e-13 0.0000000000000000e+00  -5.0317386285560322e-12 1.6349109867149855e-12 0.0000000000000000e+00  -2.3000495077964129e-12 7.4733138739439493e-13 0.0000000000000000e+00  -4.2942807616004954e-12 1.3952964005990531e-12 0.0000000000000000e+00  1.9066179643899415e-12 -6.1949772982222875e-13 0.0000000000000000e+00  -1.1159181316173392e-12 3.6258378034615964e-13 0.0000000000000000e+00  -3.2709568581431487e-12 1.0627983087395799e-12 0.0000000000000000e+00  2.5938793537901596e-12 -8.4280249169891381e-13 0.0000000000000000e+00  4.0448467342111862e-12 -1.3142503721895097e-12 0.0000000000000000e+00  -5.8989798354734316e-12 1.9166947362274496e-12 0.0000000000000000e+00  6.0601345507820118e-12 -1.9690570773720515e-12 0.0000000000000000e+00  -9.6638181171479255e-13 3.1399648470760245e-13 0.0000000000000000e+00  3.7735591938558000e-14 -1.2261037069854014e-14 0.0000000000000000e+00  4.1265512071473945e-12 -1.3407977647168309e-12 0.0000000000000000e+00  5.2504388407580929e-12 -1.7059709932298030e-12 0.0000000000000000e+00  2.5671587521067097e-12 -8.3412044191676050e-13 0.0000000000000000e+00  -5.2737439415872464e-12 1.7135432795118941e-12 0.0000000000000000e+00  4.4071061398207735e-12 -1.4319555882177746e-12 0.0000000000000000e+00  2.8888192375615528e-12 -9.3863426914095275e-13 0.0000000000000000e+00  -5.5602760007556448e-12 1.8066431891379463e-12 0.0000000000000000e+00  -5.3453271469918868e-12 1.7368020728673644e-12 0.0000000000000000e+00  -4.0283897125948990e-12 1.3089031617250433e-12 0.0000000000000000e+00  -2.0468356594616809e-12 6.6505722071144931e-13 0.0000000000000000e+00  3.3103148129874984e-12 -1.0755864834719635e-12 0.0000000000000000e+00  -4.1873243523481853e-12 1.3605441565946047e-12 0.0000000000000000e+00  4.9356833595303539e-12 -1.6037007378815691e-12 0.0000000000000000e+00  -3.5271308072182715e-12 1.1460342704559127e-12 0.0000000000000000e+00  -1.6886065448601643e-12 5.4866152561325767e-13 0.0000000000000000e+00  -6.4104966284157974e-12 2.0828966172084336e-12 0.0000000000000000e+00  8.5075572279399156e-13 -2.7642729101882977e-13 0.0000000000000000e+00  5.3825674913065724e-12 -1.7489021942297092e-12 0.0000000000000000e+00  1.2679249971378268e-12 -4.1197380491642833e-13 0.0000000000000000e+00  2.2578168397330306e-12 -7.3360916171612577e-13 0.0000000000000000e+00  7.5400027609318146e-13 -2.4498954066790069e-13 0.0000000000000000e+00  1.2143073262267876e-12 -3.9455236757128507e-13 0.0000000000000000e+00  -5.2249193568750706e-13 1.6976792102785046e-13 0.0000000000000000e+00  -3.4643026690034778e-12 1.1256201708722685e-12 0.0000000000000000e+00  -4.0945308866383598e-12 1.3303937319037476e-12 0.0000000000000000e+00  6.1190007080058204e-12 -1.9881838512956237e-12 0.0000000000000000e+00  -5.0124296637264064e-12 1.6286371237279672e-12 0.0000000000000000e+00  -5.4228305538773103e-12 1.7619844562896094e-12 0.0000000000000000e+00  2.8510665681187236e-12 -9.2636768325359855e-13 0.0000000000000000e+00  1.9944247988524935e-12 -6.4802789980299482e-13 0.0000000000000000e+00  6.7768717125548118e-12 -2.2019390982542734e-12 0.0000000000000000e+00  -4.7892836079123368e-12 1.5561325750572358e-12 0.0000000000000000e+00  -1.2401114351810017e-12 4.0293663081425522e-13 0.0000000000000000e+00  -4.4514848809209394e-12 1.4463751152952500e-12 0.0000000000000000e+00  -4.0735312488858570e-12 1.3235705359841987e-12 0.0000000000000000e+00  3.6456088393524108e-12 -1.1845301166672376e-12 0.0000000000000000e+00  -6.9072413801633284e-12 2.2442987710516478e-12 0.0000000000000000e+00  -6.5206009909554845e-12 2.1186716932387716e-12 0.0000000000000000e+00  4.0711574757921211e-12 -1.3227992503516553e-12 0.0000000000000000e+00  5.1978799751118863e-13 -1.6888935825696787e-13 0.0000000000000000e+00  7.7140225294582463e-13 -2.5064378570071768e-13 0.0000000000000000e+00  -6.1201164382848897e-12 1.9885463740389768e-12 0.0000000000000000e+00  6.6376843602407853e-12 -2.1567143860209038e-12 0.0000000000000000e+00  5.2050069868945193e-12 -1.6912092890731416e-12 0.0000000000000000e+00  -1.2642191787109146e-12 4.1076971151886091e-13 0.0000000000000000e+00  2.3835528111825504e-12 -7.7446325536508282e-13 0.0000000000000000e+00  3.3075425647940931e-12 -1.0746857254310795e-12 0.0000000000000000e+00  4.2646342141851989e-12 -1.3856636534185130e-12 0.0000000000000000e+00  -2.8763412744405211e-12 9.3457993315405890e-13 0.0000000000000000e+00  -1.3885775648158682e-12 4.5117620055612602e-13 0.0000000000000000e+00  5.3580498876741438e-12 -1.7409359419050956e-12 0.0000000000000000e+00  -3.0172022221731537e-12 9.8034842950245783e-13 0.0000000000000000e+00  -6.1950696045324376e-12 2.0129001340478422e-12 0.0000000000000000e+00  -5.3088325203637241e-12 1.7249442498691994e-12 0.0000000000000000e+00  4.5728717812826543e-12 -1.4858161100874605e-12 0.0000000000000000e+00  -1.8224144833286730e-12 5.9213836033402817e-13 0.0000000000000000e+00  4.3546895867101625e-12 -1.4149244177034866e-12 0.0000000000000000e+00  -2.7726238984983697e-12 9.0088011486883642e-13 0.0000000000000000e+00  5.2513610259887532e-12 -1.7062706293748194e-12 0.0000000000000000e+00  5.8108883759396872e-12 -1.8880720859550108e-12 0.0000000000000000e+00  -2.6654170191834106e-12 8.6604648820771695e-13 0.0000000000000000e+00  -3.6719138884319212e-12 1.1930771452235499e-12 0.0000000000000000e+00  -2.7581990998903881e-12 8.9619321368690712e-13 0.0000000000000000e+00  -9.0156129800165936e-13 2.9293502308225513e-13 0.0000000000000000e+00  -6.5289348130399697e-12 2.1213795161789235e-12 0.0000000000000000e+00  4.3358360219944432e-12 -1.4087985231831434e-12 0.0000000000000000e+00  6.4748902045221433e-12 -2.1038193583962720e-12 0.0000000000000000e+00  -2.5877656072609683e-12 8.4081601503380221e-13 0.0000000000000000e+00  -2.0514238156092866e-12 6.6654800301319974e-13 0.0000000000000000e+00  -5.8694699080923055e-12 1.9071063795869118e-12 0.0000000000000000e+00  4.3739587040298213e-12 -1.4211853334496710e-12 0.0000000000000000e+00  2.9601007403907311e-15 -9.6179503338725087e-16 0.0000000000000000e+00  2.8603567304424113e-12 -9.2938623997376762e-13 0.0000000000000000e+00  -8.7875144479637933e-13 2.8552365250767307e-13 0.0000000000000000e+00  -3.4572667372436261e-12 1.1233340580621402e-12 0.0000000000000000e+00  2.6855741667251863e-12 -8.7259594246391754e-13 0.0000000000000000e+00  -5.3596608655770875e-13 1.7414593803559594e-13 0.0000000000000000e+00  -1.0425873282755823e-12 3.3875715799982388e-13 0.0000000000000000e+00  -3.5838338139010253e-12 1.1644581941627791e-12 0.0000000000000000e+00  2.1551867315628291e-12 -7.0026261814508963e-13 0.0000000000000000e+00  1.3632402409784082e-13 -4.4294360499149779e-14 0.0000000000000000e+00  -2.5314781531821535e-12 8.2252711255277707e-13 0.0000000000000000e+00  3.0215911407709251e-12 -9.8177447560003767e-13 0.0000000000000000e+00  4.5151953568564263e-12 -1.4670759037830767e-12 0.0000000000000000e+00  -1.0300979801517031e-12 3.3469912280126303e-13 0.0000000000000000e+00  3.3820346384263107e-12 -1.0988896673674367e-12 0.0000000000000000e+00  5.8239412817045249e-13 -1.8923132321310815e-13 0.0000000000000000e+00  -3.7638364014239007e-12 1.2229445802218909e-12 0.0000000000000000e+00  1.2614753930246292e-12 -4.0987820150714422e-13 0.0000000000000000e+00  2.0556761141728862e-13 -6.6792965857077710e-14 0.0000000000000000e+00  -2.1582492973288492e-12 7.0125770608347878e-13 0.0000000000000000e+00  -4.5481378625961206e-12 1.4777795727411769e-12 0.0000000000000000e+00  -2.4784809649263113e-12 8.0530728224347832e-13 0.0000000000000000e+00  -3.5621795384847822e-12 1.1574222935723846e-12 0.0000000000000000e+00  -2.2767728694743788e-12 7.3976834914147118e-13 0.0000000000000000e+00  2.0772222320620771e-12 -6.7493041665033648e-13 0.0000000000000000e+00  -3.2067966745951796e-12 1.0419514013909113e-12 0.0000000000000000e+00  1.2339976886518099e-12 -4.0095015414914377e-13 0.0000000000000000e+00  1.8222835557959249e-13 -5.9209581939985905e-14 0.0000000000000000e+00  4.3280202175395269e-12 -1.4062590143738338e-12 0.0000000000000000e+00  -1.9553230065722168e-12 6.3532295733311582e-13 0.0000000000000000e+00  1.6334974385760822e-12 -5.3075549153975389e-13 0.0000000000000000e+00  4.5329104212873793e-12 -1.4728318771367325e-12 0.0000000000000000e+00  4.7420130760888662e-12 -1.5407734482163747e-12 0.0000000000000000e+00  4.6657620195166848e-12 -1.5159979780774863e-12 0.0000000000000000e+00  -4.3953909718905344e-12 1.4281490994125610e-12 0.0000000000000000e+00  4.5178309850156581e-12 -1.4679322712839584e-12 0.0000000000000000e+00  -5.1918345385997801e-12 1.6869293011745686e-12 0.0000000000000000e+00  1.6611459179916162e-12 -5.3973902707275742e-13 0.0000000000000000e+00  -2.1111324630438219e-12 6.8594851860012064e-13 0.0000000000000000e+00  -2.3857444242307245e-12 7.7517535361095607e-13 0.0000000000000000e+00  -1.1659666041356375e-12 3.7884551483373781e-13 0.0000000000000000e+00  </DataArray> 
</PointData> 
</Piece>
</UnstructuredGrid>
</VTKFile>