<?xml version="1.0"?>
<VTKFile type="UnstructuredGrid"  version="0.1"  >
<UnstructuredGrid>
<Piece  NumberOfPoints="201" NumberOfCells="657">
<Points>
<DataArray  type="Float64"  NumberOfComponents="3"  format="ascii">-53.61854001157629 124.8849376515329 334.5735631394917  -1.599738701933588 -128.9444119547938 -337.634827462497  4950.803703262302 45.98299684280627 -471.9386260203025  8369.987648194607 171.4263873403805 -588.1038138539519  10253.60633827994 240.0870778080461 -623.2351595079191  11202.85966616869 265.035169300367 -466.8329505714891  11497.84641586392 268.2635530526667 -194.5498111862252  11205.9366309563 269.9915632713727 73.88682594809652  10255.35911156554 282.71500976 237.2273419794937  8372.84980423757 298.182238117977 251.3520024996694  4923.188785569587 258.6287212541408 268.2114277590707  5726.15282255644 -1622.837413853513 -1071.691796640721  6015.20930522974 1612.970093289715 716.8381346734669  11016.42710960315 -1258.928949308348 -669.2437756082952  8998.657512381917 -1384.56852719677 -229.7028373547842  10533.58788575585 1826.425830053236 542.3642758526943  10549.2302223808 1813.542751940143 -151.3298979730868  6651.948336197908 1678.243230467289 -19.93868898538458  2312.038151998429 -1385.501631719148 -253.1817511892959  8936.4319931297 -1327.163195100793 -1033.147473221374  6280.294226076699 -2764.081880404853 -1387.207417437943  8662.773149857911 -2633.237136010264 -1252.118485595621  5911.297041305788 -3759.692563372429 -1482.77636544254  8008.225615192871 -3500.898301537104 -1237.401459797074  4992.534470158323 -4383.900846732829 -1396.56039900436  7098.451601066299 -3954.755878528497 -1119.702003063251  3633.04366050885 -4658.676538303816 -1253.822165524265  5558.821573344651 -4098.993059370401 -1017.067509139232  1795.975254050574 -4603.36065512112 -1115.833763977058  3737.17699722481 -3825.001098000374 -928.2995973947779  -498.3906813359299 -4202.676760003392 -950.3723310279174  8452.611980208954 -3243.429660189566 -813.7817177511911  9113.71474289389 1825.857428366967 701.3779261093578  8823.069023683895 3152.650872330044 968.1868240366607  10006.94734427616 3054.922295845633 674.6566338849713  1377.325248741069 -3182.959263847717 -764.313573875433  5601.695660804207 -2688.971111226394 -652.2894126198548  6712.685181857663 3010.92083900318 1113.710118429427  6135.350939205834 4081.008770529036 1287.653530356131  11048.8931899194 -1221.487455020727 -398.60948694045  9755.766317471758 -2719.126619914254 -851.5121249942526  10449.09639493553 -1289.352322801834 -900.6919816229796  2570.600431906896 1542.026202283472 160.0476860937516  9129.19754569858 1721.819797326767 -165.3385825296287  8843.201906184029 3120.892624397733 252.0171084919255  2332.52815326451 -4484.859666600893 -1555.070619219909  -2250.261580832329 -4791.6039142809 -1062.266191187141  2773.474583858246 -2957.42594172462 -1390.660101031648  9979.747648369943 3087.310185777471 301.3049700227235  7833.05794774442 4136.030860449544 639.5727454833647  6096.568509241061 3973.249056708502 642.6608341292201  4714.373212927778 4698.381515641141 937.4260148895265  2390.709914669705 4378.657932152689 925.5149002586805  893.3448174535395 4857.581177217202 1130.133020286944  -1807.042638451205 4354.076287011309 1039.776517602744  -2990.292822610881 4682.382281539366 1194.959081583032  -5566.382380554125 4055.560334420515 1000.937297933605  -318.7842510964806 4970.08709985708 1334.194533644017  -4603.020919351164 -4226.498889864169 -790.7252017825423  -5800.349386056689 -4643.33293583163 -882.6446939765666  -6319.485421929007 4183.819151648589 1146.434722773927  -8414.522152657402 3319.657842231387 846.3419037617715  -8782.063061717963 3308.785161252925 1024.024098731463  -10315.22619040562 2155.650183178099 607.439137858897  -10413.24963781127 2040.709919647938 841.02551943891  -9629.841841160107 2035.822593911003 432.4497049864901  -8643.728128809558 3073.637970981836 1233.339110956343  -10996.79659212768 760.6868091198116 180.1180070611301  -10033.79967956676 1659.290153548789 1006.766493250658  -10105.86165270573 380.0979617701172 -56.23677869484806  -10810.57036432835 -1029.785157669593 -345.4474253768894  -7888.885637436973 2610.938519200502 1324.270683935563  -2442.896697249555 -2345.971871639255 -419.1112483639458  -7814.734626192989 -3818.361188170058 -516.7625357445721  -9485.258519562165 -1307.624733066971 -550.129764667234  -9689.195856203165 -2605.511520856406 -795.7435667447056  -11165.35979683367 391.196105216311 575.9726625262891  -4402.672896185161 3441.218924310579 836.7912945196138  -9026.182884966 1038.177833020215 969.7357101865691  3272.624761999531 3743.624811721349 1415.38478007353  -10839.69263768329 -2200.294506837659 -416.6017675812923  -8241.531768092731 109.176078096225 -137.9421060516007  -6338.6477543482 2057.308064764373 1220.116330684147  -7691.799538610235 -2756.643507688439 -1010.094162681113  -7585.703200262159 -3817.311648072629 -1145.569898640589  -6029.924564008622 3790.395647060687 1485.82366834183  -3499.193939352945 -4993.858829244834 -1173.946616896429  -7098.759206669351 257.490274284238 662.2490348735874  -9446.340308219515 -762.7060437155257 462.9689006680615  -4879.213978133381 -3762.13690036334 -1353.652423837187  -4647.381840970046 -4553.88227233054 -1391.155665734211  -4561.077647281903 -2581.101360077387 -1078.849425998435  6477.436507175357 4658.148783965888 986.3561465257708  -8407.233939259992 -4068.340180869581 -659.4095124676958  -9974.559147631599 -2950.763496387472 -233.2852715597578  2644.044216240283 4553.065579378355 1485.151671832102  -626.0484392645433 4097.158011127688 1567.462768362818  -99.30972199016013 3267.719415332022 1410.62115996733  -4150.59951200234 1410.270883194908 952.6472241754414  -6489.721426128282 -3168.709933819115 -409.5873574864433  3646.942868406468 3640.929216901602 699.4735331317339  -7075.210854886054 -4443.823092591889 -1107.168229750558  -889.5806519946589 2727.813205906798 630.5069534546988  -2556.41196702675 1080.041160398533 153.4886141997976  -1134.358336743904 4695.790912263704 1526.406152953229  -3550.559112323238 -908.1313993729821 93.11059098263205  -1290.434425648159 -4319.264815722216 -1549.886128219405  -6868.364371403347 -1558.051082684413 65.89606834545334  -9211.172782046864 -2485.843874425809 -65.73176900320129  -10655.79096089063 -1362.894969983806 278.2459730903092  -11132.14218883675 -1696.38549353592 -7.471286786929196  -11429.47865845146 -456.1722133787975 69.61033515678183  -5486.584313020304 2203.549072143271 518.4698397313916  -7669.127320198028 2405.736320619302 541.8306543348749  -1454.131657480086 -4814.964098441216 -1484.979524267651  -188.2824538096599 3881.517551362078 890.9207504051769  5257.615853260177 4689.165481960749 1265.232167371957  10454.63227563109 -1203.889801344641 -219.5860429979277  649.9272533439936 -1712.085486843278 -931.9035771654595  1620.874079110336 -4839.893038843837 -1429.067970171732  -4017.444075375613 3374.35387649403 1509.477259111573  11154.87439804472 1713.293375982319 -2.910482445842181  7973.99617446758 4112.578274384414 1023.185250283578  9100.232324475182 3824.449997864296 675.6174586566281  -9287.957638122267 -3527.247803760445 -838.306185366413  -3828.466148174099 4663.567818169614 1362.623103404688  -6536.321317633688 4069.402985365231 1328.79055692556  -1055.371504627442 -3410.427787227697 -1416.873365265044  -3792.183379265136 -882.0705309757975 -516.5437898307875  -7266.446632467571 -1321.167877071746 -603.6292663682808  3207.210118980945 4986.63365173437 1189.644841105954  -46.24336012537255 -4965.439793663064 -1249.912324494834  6975.321987594074 -3205.761513074502 -756.8482017120855  11153.21886735145 1731.442976442652 263.5914699443973  6396.216920983149 -1277.24602625604 -234.6441320626136  -10054.5857114707 -3230.244918355409 -500.9290194683748  -2909.732547024822 -3626.858600925911 -737.8072662709906  7002.038104977217 2871.084821720845 301.4657720165357  -10510.58960512275 210.0067840476901 707.6286027933202  2764.025332357722 -3865.440032696401 -1568.894566417925  3839.544812103146 2861.003797989101 1179.659823777949  2104.201162929966 4930.114662412619 1392.667835921329  -7705.778408329655 3187.598746706784 757.1119735745644  9839.21657922023 -2416.196394209095 -1021.86468746849  -142.4357906232758 1606.175597478858 872.753372639618  9277.570461719617 -2352.58439140605 -524.0612521345972  -11123.53737735734 1102.299764363023 478.2911869073444  -6547.119376417056 -4677.889131543752 -1004.538574765041  -4260.35332397716 -4905.291963606157 -1285.044272968388  10547.9949151634 2753.35974482449 375.1784702091506  -3151.006397104592 2712.200827185593 1335.822279639034  4441.048171922093 2586.340078773428 384.314418061609  -5281.225711621146 169.6147782613733 -113.9972194246483  -4341.637175886117 4387.957361881133 1492.851283786255  10038.23110670109 -2235.06094952625 -557.9754288977493  -1236.941571670545 -5008.192123806605 -1361.757251494992  -8660.390926872866 1212.150189064156 201.7572483255611  -6453.154823687254 1013.90085533764 163.1696385886797  -3428.007271096172 4111.774462204569 1574.451193752429  -8568.8284756625 -4066.627838052596 -818.2618177362783  -18.78408128052922 -2.205355490878913 -0.6149338874535439  -5016.71343839888 -2388.024375546456 -634.3375217309189  7250.873506675752 1101.268977984887 145.0720037924868  -2828.745306224459 2272.564429071173 937.3858884761653  5389.273527861486 -1498.775413047125 -581.4467957727431  -3826.107391805685 82.01297431693803 4.491983029162265  -7341.089072797493 242.2832892787778 292.0378971834318  1704.381408977349 2660.738602156494 782.1800381089447  5138.74035897861 -1201.242014370315 -672.4285773575875  -4260.365456976035 -338.2930138009759 155.5735460004307  4058.974742931568 2141.810694176372 733.307304514787  -1656.620888976178 -2338.869484692739 -886.8275833002025  990.4379173523777 -3117.048937898969 -1059.763582312227  3339.72031340609 933.2785103867154 66.73009875908902  -1468.642199366918 -2526.02161
[...]
<PointData  Vectors="Centrifugal"> 
<DataArray  type="Float64"  Name="Centrifugal"  NumberOfComponents="3" format="ascii">-1.7346635902343443e-06 6.5877772191670860e-06 3.7345142176251423e-06  1.9836279752383349e-07 -6.7384716575618106e-06 -3.7522826563502086e-06  1.3826311684698135e-04 -2.0855044550743864e-06 -7.0944043432276973e-06  2.3360804153451436e-04 9.4949679593585483e-07 -9.5014433457088008e-06  2.8610670592308740e-04 2.9530639147314815e-06 -1.0642105957981227e-05  3.1239962854931778e-04 5.8145258814781740e-06 -1.0181106651766563e-05  3.2036378053606611e-04 9.2506286111319835e-06 -8.6139802004809718e-06  3.1199403708758578e-04 1.2311556301449340e-05 -6.5540676790968597e-06  2.8539139516320681e-04 1.4030677697270031e-05 -4.4568854403378715e-06  2.3298547356114725e-04 1.3572144812825446e-05 -2.4618126856082955e-06  1.3692645436057588e-04 1.1178415088630477e-05 3.3216119518118662e-07  1.5954648953098126e-04 -4.4341147167277721e-05 -3.1484547312755174e-05  1.6760098682313897e-04 4.5894160984034979e-05 1.8302689547435012e-05  3.0662184123885405e-04 -2.9146738948305755e-05 -2.9356876311470950e-05  2.4999080787292785e-04 -2.7653516697804427e-05 -2.6096058327051321e-05  2.9364060411130380e-04 5.0673249083382366e-05 1.5546886234678400e-05  2.9470292581701126e-04 4.2209057267755596e-05 1.0798735860221961e-05  1.8603093022605372e-04 3.8901407152652534e-05 1.3626437329943043e-05  6.3885376262929074e-05 -3.1343152124509063e-05 -2.0156306051384212e-05  2.4902150432490490e-04 -3.5956365298597245e-05 -3.0667350305201123e-05  1.7468050450234629e-04 -7.2107775046345983e-05 -4.7560872522987595e-05  2.4094137974116659e-04 -6.6514474295283706e-05 -4.7297969222432785e-05  1.6399139727160241e-04 -9.4640191709898934e-05 -5.9620563748710943e-05  2.2226799789483348e-04 -8.5161949759883187e-05 -5.6856490142561581e-05  1.3802163912545896e-04 -1.0738895511318537e-04 -6.5588633524480457e-05  1.9660611639801140e-04 -9.3904034869942804e-05 -6.0611742973450083e-05  9.9909587023663858e-05 -1.1224717809483024e-04 -6.6651591348378464e-05  1.5358261807907816e-04 -9.6545870472525202e-05 -6.0232466077025554e-05  4.8675653200475409e-05 -1.1036977159795195e-04 -6.3409029366346867e-05  1.0293390202138563e-04 -9.0582440872276126e-05 -5.4744911140374869e-05  -1.5137327468049592e-05 -1.0104012812860637e-04 -5.5486118375226949e-05  2.3438157575919898e-04 -7.4443959145695137e-05 -5.1421823084574524e-05  2.5397202110579603e-04 5.1819911779314593e-05 1.7886951797405859e-05  2.4631118988983680e-04 8.3098569327509110e-05 3.5593664652285361e-05  2.7948366801343533e-04 7.8147909361529744e-05 3.1419053076870785e-05  3.7421875516424956e-05 -7.6160267148280347e-05 -4.3919745825903225e-05  1.5515829148009356e-04 -6.2166729732539492e-05 -4.1199713645912984e-05  1.8736249629196930e-04 8.0727431524922865e-05 3.6807016494672261e-05  1.7167606990379911e-04 1.0529298908741207e-04 5.1128603300204447e-05  3.0729742251969837e-04 -2.5134244478287773e-05 -2.7156613840643133e-05  2.7095616984453501e-04 -6.3056134043265569e-05 -4.6665138203052946e-05  2.9102573298355491e-04 -3.2817958220247243e-05 -3.0726983527383346e-05  7.2190497449517408e-05 3.6055088117871560e-05 1.6932330405548004e-05  2.5514165142565996e-04 3.9368533854667511e-05 1.0918989755246544e-05  2.4750945641779254e-04 7.3968837116859264e-05 3.0469916470686378e-05  6.4072157356167477e-05 -1.1276297866012427e-04 -6.5399633021882717e-05  -6.4098395740954907e-05 -1.1580085448002951e-04 -6.1584962608897986e-05  7.6970963838818562e-05 -7.8047718533127454e-05 -4.6666249511256305e-05  2.7908390201501900e-04 7.4412264833189441e-05 2.9360762218641888e-05  2.1955255393668399e-04 9.9668196470834673e-05 4.5948202604087507e-05  1.7113083799808664e-04 9.5354944139851378e-05 4.5630621598330326e-05  1.3275524830406925e-04 1.1358917538177474e-04 5.7408706355320734e-05  6.7923242007803235e-05 1.0545645228882925e-04 5.5673605862021834e-05  2.6299235040521561e-05 1.1732039349603804e-04 6.4051935488961293e-05  -4.9040738159094963e-05 1.0415326942867477e-04 5.9970932266401619e-05  -8.1952422468770759e-05 1.1238281369571023e-04 6.5956033576539285e-05  -1.5380038338934466e-04 9.5425894539535302e-05 5.9619577558256381e-05  -7.5704262655824786e-06 1.2151433839025626e-04 6.7836061139954894e-05  -1.2955024564969672e-04 -1.0174354830571617e-04 -5.0965094196795001e-05  -1.6300619693849678e-04 -1.1231970017634487e-04 -5.5404714493859890e-05  -1.7483128742459557e-04 9.9496329751612406e-05 6.2783906247143502e-05  -2.3331238027816354e-04 7.6472432182944091e-05 5.2502902803450250e-05  -2.4371088598264471e-04 7.8154004206935470e-05 5.3883567791614187e-05  -2.8659209138422149e-04 4.7880686164758099e-05 3.8905209413469280e-05  -2.8959224805166723e-04 4.8142012520202669e-05 3.9179196311381653e-05  -2.6741497333498314e-04 4.3607043647390042e-05 3.5707567008746604e-05  -2.4017067424130062e-04 7.5686883830940977e-05 5.2360898691705160e-05  -3.0588154157525158e-04 1.2759316996325046e-05 2.0220554490427545e-05  -2.7937486124278524e-04 4.2165310165987390e-05 3.5420014104359577e-05  -2.8105904464977005e-04 2.3081213791715984e-06 1.3348420697971770e-05  -3.0112624874049525e-04 -3.1510822967850864e-05 -4.5792421963703163e-06  -2.1947691565760632e-04 6.7284562311700121e-05 4.6804330196941371e-05  -6.8807080811084760e-05 -5.6183318928186629e-05 -2.8260445501354601e-05  -2.1899349383614465e-04 -9.1438270552052998e-05 -4.1399813028112155e-05  -2.6418938237278444e-04 -3.9177841602875973e-05 -1.0424618993584741e-05  -2.7030028121317456e-04 -6.9840961951960913e-05 -2.7198120537827992e-05  -3.1112253262195288e-04 9.4781184651376305e-06 1.8622582558047597e-05  -1.2156955537370403e-04 8.0985275430902489e-05 5.0212950764889303e-05  -2.5160848436578539e-04 2.9003376920221214e-05 2.6915463060217946e-05  9.1702424628979599e-05 9.8160650582278353e-05 5.0599339214645578e-05  -3.0246574146391324e-04 -5.7309279747684473e-05 -1.8854869097486614e-05  -2.2922704690471325e-04 -3.4847706816295987e-06 7.9048140207577274e-06  -1.7651079913907824e-04 5.5042691642315305e-05 3.8158412388930834e-05  -2.1458239598777911e-04 -7.4581207334985711e-05 -3.2223720744277919e-05  -2.1204353073172674e-04 -9.8730521746744968e-05 -4.5749616257877036e-05  -1.6728067766712501e-04 9.5270283535975569e-05 6.0111842029222729e-05  -9.8863868813245772e-05 -1.2206415891638674e-04 -6.3572228095736330e-05  -1.9807267609374139e-04 9.7115754696055847e-06 1.3898973015357596e-05  -2.6375472284701477e-04 -1.5574119321899665e-05 2.6705002860276409e-06  -1.3648864236246927e-04 -9.8640685550196774e-05 -4.8943332122401753e-05  -1.3040287099153633e-04 -1.1583786218932728e-04 -5.8759023306580161e-05  -1.2728487585745180e-04 -7.0064719163297773e-05 -3.3462192747903785e-05  1.8176617014959044e-04 1.1420451053699273e-04 5.5646499808806988e-05  -2.3548266096032493e-04 -9.8751461415638272e-05 -4.4754990771605090e-05  -2.7893231488780378e-04 -7.0696097484459174e-05 -2.7302638009061740e-05  7.4552419274978181e-05 1.1591489393669310e-04 6.1199521814156156e-05  -1.6779191726327783e-05 1.0551347929404238e-04 5.9341627007597115e-05  -2.3946535058252006e-06 8.6252438946991900e-05 4.8023020180244639e-05  -1.1568907420389763e-04 3.9204018437333013e-05 2.6747624991738843e-05  -1.8187917145423408e-04 -7.5655869226822986e-05 -3.4224756046071509e-05  1.0272344281285367e-04 8.7702029104121262e-05 4.4315587428446596e-05  -1.9818655599571381e-04 -1.1136830254566458e-04 -5.3365817258811354e-05  -2.3953910036174387e-05 6.5127597871223884e-05 3.7212014737563243e-05  -7.0751614024315457e-05 2.3531897039562255e-05 1.6111293828519037e-05  -3.0587135758431993e-05 1.1752691848610847e-04 6.6608850752432420e-05  -9.9377863481295357e-05 -2.0052691421623451e-05 -6.8745292116374543e-06  -3.6696085516854214e-05 -1.1101101029717294e-04 -6.0100217619159723e-05  -1.9203600044950965e-04 -3.5906887844764489e-05 -1.1704937211456898e-05  -2.5760009388406629e-04 -5.8421631413978654e-05 -2.1398985923928274e-05  -2.9755638076653867e-04 -3.1160286780805910e-05 -4.5377480205837335e-06  -3.1072421412361268e-04 -4.1884837241912803e-05 -9.9307996380821931e-06  -3.1844196265573224e-04 -1.4696609278314015e-05 5.5057917765588924e-06  -1.5207816274564071e-04 5.0299698544702070e-05 3.4474384438128699e-05  -2.1274942355335055e-04 5.3776985348692303e-05 3.9010960930705241e-05  -4.1563454514064536e-05 -1.2089008166805784e-04 -6.5379882185725362e-05  -4.0853102020956902e-06 9.3145499681272816e-05 5.1925254868804055e-05  1.4757275052834992e-04 1.1754217438221781e-04 5.8968791165285915e-05  2.9060123702432115e-04 -2.2945158188187045e-05 -2.5223619527348831e-05  1.8073525316730309e-05 -4.7166347830441054e-05 -2.6980636292490484e-05  4.3967627262686963e-05 -1.1920054843165160e-04 -6.8113122125050039e-05  -1.1149464249148622e-04 8.7705195842159318e-05 5.3513887390533092e-05  3.1137503780756753e-04 4.2133981827525868e-05 1.0041279293777349e-05  2.2311346937789936e-04 1.0377320478485674e-04 4.8075994482449627e-05  2.5463418967374980e-04 9.4097422792511982e-05 4.1347106088655272e-05  -2.5956030921485228e-04 -8.9782008573479100e-05 -3.8738062009333121e-05  -1.0544616854570256e-04 1.1353799949238662e-04 6.7606436719083100e-05  -1.8109161906808036e-04 9.9103140566441180e-05 6.2834218468170558e-05  -2.9813339728530868e-05 -8.9953149723051798e-05 -4.8696351826877049e-05  -1.0553370818109021e-04 -2.6824405761620751e-05 -1.0372490050742583e-05  -2.0238532872587274e-04 -3.8972997316492634e-05 -1.2964105060645247e-05  9.0718309045724133e-05 1.2194757469156066e-04 6.3857151011562327e-05  -2.6649587883136092e-06 -1.2060450631236789e-04 -6.6891163089674192e-05  1.9322736970229745e-04 -7.3717940616836847e-05 -4.9251680532555249e-05  3.1109480800451116e-04 4.5669234125219902e-05 1.2017428758786574e-05  1.7760914135888032e-04 -2.6745218500239188e-05 -2.2484026719088829e-05  -2.8105729703106205e-04 -7.9855101486877022e-05 -3.2299979522514732e-05  -8.2160571524466560e-05 -8.7481188729186330e-05 -4.5075671961198183e-05  1.9608757709760978e-04 6.8295867783984884e-05 2.9525701768068142e-05  -2.9310872147187870e-04 7.5050866562697658e-06 1.6753057366323023e-05  7.6410032692313451e-05 -9.9507981949683479e-05 -5.8565082846185640e-05  1.0725048746229502e-04 7.6854522102165287e-05 3.8094569314647601e-05  5.9801274657872447e-05 1.2258279030086852e-04 6.5537355848129452e-05  -2.1356955445234381e-04 7.2963441050402349e-05 4.9705799924124883e-05  2.7358830294333953e-04 -5.8571650573377090e-05 -4.4286643827859443e-05  -3.9468885842460736e-06 4.4467940991665034e-05 2.4874985787251585e-05  2.5753222359521161e-04 -5.1618359576747981e-05 -3.9734228148158287e-05  -3.0950841990093830e-04 2.3498182788675910e-05 2.6342568807818659e-05  -1.8369924972814247e-04 -1.1487538437512660e-04 -5.5936236030273269e-05  -1.1990485476573975e-04 -1.2187588470773427e-04 -6.2564321459585641e-05  2.9466455535952951e-04 6.8457259983635205e-05 2.5383385740212701e-05  -8.7554141504638121e-05 7.1982556176310928e-05 4.3750904200100332e-05  1.2458064591284795e-04 6.1907925423395930e-05 2.9046527746127363e-05  -1.4681620592112715e-04 -4.1205590292552136e-07 6.0739977016056216e-06  -1.1998935921038474e-04 1.0894351284709838e-04 6.5678177166669956e-05  2.7879629847582434e-04 -4.9128879320550030e-05 -3.9264002664117125e-05  -3.5728376535053043e-05 -1.2344130969406926e-04 -6.7047800199733580e-05  -2.4063689140549490e-04 2.3820758384526628e-05 2.3565080104999211e-05  -1.7926238014424770e-04 2.0259973832943593e-05 1.8951922789395314e-05  -9.4772503921368128e-05 1.0448602539375564e-04 6.2119103629812311e-05  -2.3983482613520920e-04 -1.0067416000666688e-04 -4.5636363905168980e-05  -5.2342442685234821e-07 -6.3791270494561248e-08 -1.2970220451115861e-08  -1.4027574505412753e-04 -6.0928590184738486e-05 -2.7828625503289998e-05  2.0225900931163161e-04 2.8860275224994726e-05 7.3510918345778895e-06  -7.8443003349683833e-05 5.8069222813090240e-05 3.5629772703841871e-05  1.4978451063180399e-04 -3.6074994488048986e-05 -2.6472941011726162e-05  -1.0646468171079944e-04 -1.4035385067857064e-07 4.4926294681404352e-06  -2.0448774412699193e-04 4.8896851149832705e-06 1.1495425977176453e-05  4.8078182538657586e-05 6.6806630707295632e-05 3.5052462549571761e-05  1.4304478282637520e-04 -3.0937003546172198e-05 -2.3329029395473912e-05  -1.1890372866691584e-04 -7.5317472956370352e-06 9.2012920713986997e-07  1.1340118145146054e-04 5.6365599912664480e-05 2.6447259683098307e-05  -4.6489886596000163e-05 -6.1160221129009638e-05 -3.1983611409912277e-05  2.6955841624743376e-05 -7.8443460314909908e-05 -4.4738929996283560e-05  9.3375828547240399e-05 2.2370483376776981e-05 8.4199221662602693e-06  -4.1535727769416577e-05 -6.2679469472600295e-05 -3.3040362614424404e-05  7.9838395592873431e-05 -1.9244285627328434e-06 -4.4966972137687294e-06  -1.3522405960736565e-04 5.6233852914437538e-05 3.7047728740300864e-05  -2.0541921189144209e-04 -3.8936610726871305e-05 -1.2813642518399053e-05  2.0915189271694906e-04 1.3154423272965339e-05 -1.6706976102066538e-06  -2.7935676479228021e-05 4.2509090413173912e-05 2.4816542009713049e-05  5.0002684314384516e-05 8.6446485789149811e-05 4.5881372514808222e-05  1.8070999987960805e-04 5.5430401926286012e-05 2.3038064177837736e-05  1.7496189026960061e-04 7.6577235178879269e-05 3.5033613448425895e-05  -1.9755770476693283e-04 2.9660161019687456e-05 2.4959919944607084e-05  2.3286766476851713e-04 -2.0453304261659635e-05 -2.1360647953065594e-05  -4.7558697551706163e-05 5.3145989744256699e-05 3.1568631918805646e-05  -2.3118912618413432e-04 -3.6220008951860604e-05 -1.0198028749207668e-05  2.2893466296886329e-04 9.8360622203598140e-06 -4.3636048835624249e-06  1.6054009205001017e-04 -6.4698479534648761e-05 -4.2837350395009066e-05  -2.1538435733423514e-04 1.7561070966119849e-05 1.9003206800105087e-05  5.4955266233628837e-05 -3.1268079314988333e-05 -1.9731220807469908e-05  -8.7651996114900706e-05 -9.0006051134001755e-05 -4.6242686618228042e-05  -8.5190040420445720e-05 -9.1538110881698141e-05 -4.7199563474666727e-05  8.4388974850341800e-05 -7.5521097203944340e-05 -4.5580967406939869e-05  -1.8396766291452270e-04 6.4141446421655767e-05 4.3533636299626952e-05  7.1210747099548354e-05 -7.8180267020507783e-05 -4.6492600573881542e-05  -4.6546352137098226e-05 8.8379947582496331e-05 5.1100488571181100e-05  -1.4457611527682481e-04 -4.5849950136174559e-05 -1.9266601577795738e-05  2.2347208428836722e-04 5.5349456011509506e-05 2.1157284306321528e-05  3.6110176427016461e-05 4.5893854683877629e-05 2.3947516957152510e-05  9.9274469457974690e-05 2.6291057344680863e-05 1.0344885546307529e-05  </DataArray> 
</PointData> 
</Piece>
</UnstructuredGrid>
</VTKFile>