<?xml version="1.0"?>
<VTKFile type="UnstructuredGrid"  version="0.1"  >
<UnstructuredGrid>
<Piece  NumberOfPoints="201" NumberOfCells="657">
<Points>
<DataArray  type="Float64"  NumberOfComponents="3"  format="ascii">-20.55972483316215 3.013224845385701 538.5817478169669  -23.12667840898403 -2.593450709602144 -542.6505803452002  4725.511919839098 3.40289247558107 -548.3514092565977  8141.108453062257 -0.6596186732982493 -554.6405301439938  10148.46360369956 -3.869724692043131 -488.1590740489125  11188.03070667568 -2.950808381721621 -273.0723587881191  11512.91157585059 -1.714331002655317 28.60903897492249  11188.78442202917 -2.341426500735842 329.4056917387659  10147.84460062446 -3.178668667317696 542.1635244423053  8145.012962418271 1.629930428424477 603.4546995616914  4723.863228744973 2.609260309687293 580.3061400531784  5736.801922999953 -1108.533322154691 -530.5793696119881  5768.770909282122 860.3508031508849 573.8963706699667  11097.49455659446 -1254.666317658801 -116.8094732804902  8968.226086599316 -1213.313086798124 548.2612031413952  10467.34619270098 1221.565034643246 412.0388899291294  10445.53893103625 1222.140654760422 -362.1150393422701  6326.32594073998 1011.673140515406 -536.17835581806  2354.763696576745 -920.3696380631624 536.9203246809943  8941.786527891712 -1118.484502588969 -503.693796987012  6529.201306800404 -2005.143478017904 -456.8553826063092  8890.085810436285 -2163.56050865464 -362.0079155731393  6347.75609526512 -2823.306255653335 -304.4444285969449  8377.802184869453 -2862.931867466247 -157.3293762668023  5517.02510410482 -3294.64329073891 -116.0076392142203  7536.489686507859 -3161.248192742611 60.10410260056482  4165.613786002598 -3408.206884245221 71.60625543114945  6010.431046742463 -3098.517924057378 253.4859031921671  2255.461566269076 -3206.842336855086 227.156141425844  4122.482213089752 -2680.149725002133 383.3406485874162  -160.5790433405835 -2766.997317350329 347.8965281797622  8741.765572421064 -2685.208182766271 253.7809441826295  8953.671514712087 1120.422713897157 558.3135013574047  8758.780231688999 2167.133002208529 424.3264151865166  9976.254463546407 2213.203995181318 228.4053969867301  1651.846923857539 -2057.168469205437 460.9023495263688  5768.810333816768 -1934.412523524103 499.6461906674286  6574.452607271468 1895.136602907147 510.0313710377569  6081.030939111429 2750.059312228093 363.8109922868654  11117.64815943982 -1225.297649118001 171.3489129913601  9979.130131069889 -2386.776365391488 42.38406424165917  10507.78331074696 -1226.445216460639 -350.3384176753366  2327.577036093597 926.2950811872997 -520.1470832086712  8896.140560200058 1084.164301069338 -509.3852398060582  8702.773990873362 2152.007696530226 -380.3911049147655  2812.879627046155 -3128.936224716701 -239.3346778390829  -1986.199668702075 -3236.207563507126 199.3556307521779  3018.468845981872 -1889.321084503696 -461.5204263665912  9925.042592172018 2232.257015424153 -180.9334172189776  7774.737021802367 2940.337325859602 -193.7319799645324  5933.483272460899 2663.567570845958 -347.7873168095271  4593.841574274964 3225.032191237927 -184.2588559159005  2140.478778892485 2894.516574053486 -312.4535797288046  589.1411605751732 3326.796387856005 -166.0645460103988  -2201.732447318524 2982.738172981971 -304.2454063856977  -3465.364866945765 3364.591307107231 -144.324768890541  -5987.218060403136 3041.095342683673 -279.4521482662895  -688.9751293247123 3462.624260405749 8.454386592507657  -4403.715656125025 -2797.902746518603 335.0021159881968  -5708.055519606861 -3222.145556796001 170.9789013582152  -6781.36941208225 3252.526431538181 -93.79704532426287  -8716.242120791279 2732.378507021536 -234.703783854538  -9099.962369763991 2780.064519011326 -6.036115069861601  -10467.85801844761 1956.138572558835 -177.2869759319025  -10573.55719754956 1866.927845827547 111.5690170431624  -9725.97475895601 1775.396333938257 -421.1312466507891  -8943.087153430164 2544.276520689734 243.0045222733237  -11038.92051109049 831.3443268966603 -311.1699982576602  -10138.57239009288 1492.751715538557 364.0311556809887  -10037.91950051025 502.0440153386362 -539.5273783768266  -10766.60044038988 -593.7765949143303 -423.4828205273291  -8109.146698208173 2040.374680641968 426.0355674642387  -2145.998738258967 -1424.649215060433 492.7485177852977  -7708.568551990238 -2639.501052838989 309.339523578729  -9331.280069721448 -744.4704254811044 -571.0680554608322  -9620.731617569789 -1783.774801300268 -430.5767120365351  -11212.51076649019 532.4462786757362 220.9968373559141  -4699.404668487517 2417.516286829844 -436.6768773319494  -8998.203907995598 901.30819828623 524.5099937483922  3102.107900461651 2354.187224856821 431.1692993491748  -10818.7834967783 -1561.879235969994 -191.3817090471921  -8054.25498422231 280.9778329173507 -604.6917473586644  -6436.069686684834 1447.658716274253 507.2818691412656  -7558.76758171844 -1743.965891015979 -522.7447658493282  -7544.903116318784 -2618.985835226823 -369.2575592963047  -6457.64020106362 2845.828999969202 296.0106161606202  -3333.781460534514 -3441.074370343606 30.01277083219681  -6893.756846304718 253.3638713937174 555.3448499566524  -9257.471134908921 -397.0164278913273 532.4957599160015  -4746.00739497932 -2407.92435623399 -439.9932483706027  -4547.806718609061 -3078.074204699778 -285.5011330412022  -4350.697240315109 -1490.73913447011 -530.0027203604284  6443.832229824548 3298.536953323072 0.8482254776659897  -8374.341955572123 -2919.632167200303 115.4275946837551  -9900.269206454397 -2107.489912679462 247.6895957167172  2461.29345471228 3034.383039083612 289.6509610363568  -942.3306278358727 2692.098368485774 357.7250783878348  -335.9064058375956 2015.383022291643 453.9354195381492  -4132.741873292057 881.0811162915595 533.0505223836926  -6250.038265595277 -2040.315997577628 455.7288266925346  3395.385861428599 2317.438819278331 -416.8292398018755  -7057.933436421803 -3134.094893371846 -182.3739721020118  -1115.08437377681 1725.651718043647 -484.7507066056922  -2566.78869241645 747.8042868385203 -545.7871700797986  -1532.291800719974 3240.797373939027 199.8705762091047  -3296.169373948508 -535.8909875614512 533.7142545560971  -1017.579807004584 -2823.402804804028 -338.8274252603715  -6557.130576620281 -927.6676268479887 541.4259542547255  -9033.294671351221 -1659.295666374976 441.9248472547579  -10581.02243545076 -865.4080776796461 384.7962367688185  -11116.91719542915 -1161.927764110359 110.7283132348395  -11458.00716514314 -153.2682030904077 -117.3114649279647  -5559.766649337904 1576.535300174836 -536.3869399637452  -7782.609514042866 1883.00742788445 -502.1783938947453  -1170.484521325299 -3260.406017689286 -202.7872661462289  -499.1071332489734 2535.316620256959 -392.1998864815297  5201.5399419603 3247.841061277532 191.892190175095  10468.90220955761 -1171.872109052553 419.6748923502348  751.0535174963061 -959.3263379618023 -517.9105366843326  2102.561213241856 -3408.762700976479 -88.42962299166072  -4345.775500846648 2291.180492890353 423.4172093961226  11117.99355200398 1177.695184370464 -120.5259655793876  7957.866118991304 2936.037877341083 223.1995020053731  9078.26234466282 2795.177389499571 15.38887301141645  -9267.726823394447 -2535.112585984324 -235.4139375959849  -4335.59662923933 3420.502596738092 37.18547061853567  -6997.231369544253 3173.895868125194 114.0320014073805  -812.5712382855939 -2089.000079861306 -450.2350673337164  -3609.224259336195 -390.1548857517699 -565.2088637508756  -7023.997933515628 -682.7534777471263 -594.5302735592624  3045.943422636239 3437.828960746235 -22.57772733584806  346.4976357502105 -3443.602233702004 68.51969252110054  7248.952348069661 -2468.469420341553 414.5295623671938  11125.76109152992 1192.580762874183 159.1627130068075  6319.59466502805 -1003.70692861171 578.5433736395972  -10025.66962819573 -2361.252024409114 -3.740707135674365  -2624.850961562132 -2295.132694009352 417.0626300789338  6745.496221171808 1845.296126165864 -471.7843138086508  -10484.70515044299 357.7982058670161 436.1147265647717  3173.728933563259 -2613.879783085076 -368.0088165551203  3652.432092922259 1686.292704809642 504.9887234886072  1888.912532014975 3376.719324179761 135.0406136672863  -7969.152135934512 2523.417848612919 -379.3869051925933  10032.13424464305 -2127.659134143539 -203.2064623387234  -232.6881072288398 883.0001368761843 521.9872818955988  9408.655920381316 -2001.262050337263 403.3297243942453  -11214.96124456885 1123.869752201748 -51.05868042013132  -6511.697062131207 -3306.187530485126 -13.51697795532513  -4148.082095410334 -3384.637756739237 -122.0582435682375  10515.63669892113 2010.061696867582 20.10116035763105  -3345.438644239288 1728.554331001195 480.8530284803846  4143.494605708755 1584.109852500715 -489.9902733580743  -5102.818495682312 263.8363705573936 -585.1731812023605  -4830.520699820465 3211.151661019096 195.6944523789158  10180.23347289568 -1991.416137284929 271.7253079853374  -929.9371161369297 -3444.202122063551 -65.30283384371037  -8583.584189530644 1059.610013243205 -569.6084581615651  -6349.960169061572 826.7940457838985 -585.6864752181559  -3858.513332025399 2875.613761608927 316.5986441363218  -8560.533437457399 -2939.812261891405 -68.74896455493636  -17.45467050503004 -0.4905351037844694 -0.8867071424903248  -4749.272290547594 -1406.127356952596 -0.4476863360682228  6959.759853449375 579.70097174981 19.78206174912397  -2946.920082133488 1434.15138228881 116.2641207653633  5356.11983841094 -1060.908588008458 142.2846934080966  -3670.679518014575 151.1392774890243 -267.993421022427  -7135.194044356987 298.7657853806579 -22.22848608260054  1456.865385981444 1590.103677786145 -101.7889162384262  5064.031600402623 -827.5426451544228 -163.1288530603987  -4042.426764756171 -155.0919597493044 237.3784909773397  3813.798324006466 1220.387450525836 215.265698576034  -1439.305287428767 -1354.263422519706 -215.4585772075047  1244.40713034757 -1951.917896185967 4.423069558499859  3112.289286851975 528.2321760606313 -26
[...]
<PointData  Vectors="Velocity"> 
<DataArray  type="Float64"  Name="Velocity"  NumberOfComponents="3" format="ascii">-2.9964690445345401e-05 2.4555768280208676e-06 -1.7761972200031520e-04  -4.0460666993262653e-05 -1.6098757416462525e-06 1.7470843264498639e-04  2.8239410393658864e-03 3.7027886917226611e-06 1.7573753831727246e-04  4.2708275034387799e-03 -2.0090363645598383e-06 1.2531181962182234e-04  4.6976969539905822e-03 -3.7344227435449461e-06 6.1344328797081183e-05  4.7917701063264805e-03 -3.0332405157215994e-06 3.9776215507402363e-05  4.8048876921898643e-03 -2.5077481376402216e-06 4.2970195913044133e-05  4.7910711470256304e-03 -3.0194644352796699e-06 4.6438286905197271e-05  4.6965036065386703e-03 -3.4773215766048324e-06 2.3366980028503367e-05  4.2791937285770066e-03 1.6604923317415768e-07 -4.8160248503282506e-05  2.8176049093797985e-03 2.9200684443403129e-06 -1.2262790754033842e-04  3.2982531184800688e-03 2.5847575470031405e-04 1.5665677712196842e-04  3.3529315956832635e-03 -1.9939749056821637e-04 -1.0132798912637095e-04  4.7769628500072565e-03 7.0980167515768592e-05 4.2393202489598506e-05  4.4545591364299492e-03 1.6501774372364096e-04 -1.4712519245158888e-05  4.6987250515565888e-03 -9.7597529136982732e-05 3.3697828371696730e-05  4.7015476335369203e-03 -9.8213286313451927e-05 5.1789428542833532e-05  3.5701448113740811e-03 -2.1701974532463241e-04 1.5118658836164278e-04  1.4729159392640001e-03 2.8143653032369455e-04 -1.5180200074881771e-04  4.4528122847363556e-03 1.5057460483881876e-04 9.8241965351456199e-05  3.6101545606068769e-03 4.2500618873043017e-04 1.2809604250246372e-04  4.3840369475912130e-03 2.9556472600836460e-04 8.1161021685856836e-05  3.5068629424217083e-03 6.0522942844702253e-04 9.7321594849892351e-05  4.1920869187513608e-03 4.3624892306800075e-04 6.0802526133664026e-05  3.1335296531178974e-03 7.8063049424344265e-04 5.9237639698663421e-05  3.9228042949789122e-03 5.6472165244551972e-04 3.0983598833327020e-05  2.4585498120151864e-03 9.1420060051080742e-04 8.2067686987272207e-06  3.3544326058469590e-03 6.9118548354956614e-04 -1.7067593026575452e-05  1.3772427088171266e-03 9.5958654673335521e-04 -5.3572392394904650e-05  2.4628273430789085e-03 7.2259588456151846e-04 -7.6829480950228732e-05  -9.7764617248424174e-05 8.5637499860347012e-04 -1.1271681988562842e-04  4.3040629990562006e-03 3.7695368713566935e-04 1.4167674044237219e-05  4.4613509656422010e-03 -1.5048865810508944e-04 -1.3397075656705107e-05  4.3598074670214860e-03 -3.0157794674218267e-04 -8.5262231460765715e-07  4.5699198949626773e-03 -2.1184383983211547e-04 3.2464720812520911e-05  1.0370110300583911e-03 6.2245901980392294e-04 -1.3211961965754529e-04  3.3200370285177395e-03 4.5351540979677728e-04 -8.0548937127772262e-05  3.6553705415410085e-03 -3.9478533566291173e-04 -6.3905071318485343e-05  3.4166169998214070e-03 -6.1264078756517466e-04 -4.2480199173215308e-05  4.7805131141717078e-03 6.7838868589809666e-05 4.2248601443327222e-05  4.5775971075201084e-03 2.3723809148018301e-04 4.0979481226954216e-05  4.7344844161345719e-03 9.4686210309583789e-05 5.4546119798444862e-05  1.4293899810767425e-03 -2.7534462787214556e-04 1.7912151317404237e-04  4.4540967640651482e-03 -1.5149722517512302e-04 9.8354199336379109e-05  4.3349965858686598e-03 -3.0257685210512727e-04 8.2390262811759350e-05  1.7134264836674970e-03 9.1611019227176181e-04 8.9930518346627097e-05  -1.2317029213353931e-03 9.7625469282722850e-04 -7.6540646850384056e-05  1.8639883296722004e-03 5.4867252933319777e-04 1.6038989322629500e-04  4.5609123667250655e-03 -2.1829470833925618e-04 5.1386558970622093e-05  4.0294013611098800e-03 -4.9848968457243646e-04 6.6852173113109205e-05  3.3610524137884464e-03 -6.0774471548570737e-04 1.1289446255026833e-04  2.6892931824052885e-03 -8.3840073175199038e-04 7.6343769574418620e-05  1.3130191470092486e-03 -8.6859949990180600e-04 1.1058816868979188e-04  3.4943733925525217e-04 -1.0228828926194559e-03 5.5592676790612376e-05  -1.3768015739541633e-03 -8.9120632392956489e-04 7.6024577151611024e-05  -2.0977437319663526e-03 -9.3736767121091404e-04 1.6943475935968411e-05  -3.3411699432078956e-03 -6.7850751122120888e-04 2.3354972761430313e-05  -4.4310911800143676e-04 -1.0674944454471091e-03 -8.8619914963549014e-06  -2.6215913022125162e-03 7.2402676423059429e-04 -1.1327254715121929e-04  -3.2066987857064860e-03 7.2889692889511820e-04 -6.8179653146766529e-05  -3.6499193945621895e-03 -6.5316481681338963e-04 -1.9636183292353822e-05  -4.2854711195865671e-03 -3.8331350957006218e-04 -1.7316347630824346e-05  -4.3604394245720587e-03 -3.5208975547072329e-04 -4.1782485446241935e-05  -4.6597544581160003e-03 -1.5197948333791215e-04 -3.8919072597294419e-05  -4.6672010503375329e-03 -1.3824350303647909e-04 -4.5298211257649773e-05  -4.5612428109299032e-03 -1.8613603549237778e-04 -1.8281492773605002e-05  -4.3468416470265831e-03 -3.3730532070002945e-04 -6.3986245345642193e-05  -4.7475744691773073e-03 -4.8567406665284317e-05 -4.4106699044906393e-05  -4.6341266305017018e-03 -1.3431058035613116e-04 -5.7879988027625568e-05  -4.6600357280319159e-03 -4.7921328240875206e-05 -2.0015231370038814e-05  -4.7343038579314069e-03 3.9806495624379541e-05 -4.0614781261098296e-05  -4.1862232837718344e-03 -3.3126679522139647e-04 -1.0138842627598596e-04  -1.3620520055034116e-03 4.2410422285536439e-04 -1.7232598148933401e-04  -3.9992552687582407e-03 4.5935607482927912e-04 -8.9000541811358794e-05  -4.5364516237313022e-03 8.7788502245878466e-05 3.5486350190261889e-06  -4.5516242531379583e-03 1.9428288521829265e-04 -1.2855383978661648e-05  -4.7629796769821280e-03 -2.7584543405299212e-05 -3.8925534009061164e-05  -2.7694419226268327e-03 -6.1393596591506475e-04 8.0391829625173854e-05  -4.4555156995323732e-03 -1.1855092844042896e-04 -9.1971995993438566e-05  1.8918526943144920e-03 -6.8263883972901685e-04 -1.0795465696361513e-04  -4.7073069078084860e-03 1.0198481782793625e-04 -4.2727139088830676e-05  -4.2240893544323995e-03 -4.5705535782387434e-05 4.8735247107463743e-05  -3.5937354193503967e-03 -3.1318362335810209e-04 -1.4426535638916631e-04  -4.0068299006037035e-03 3.1224237987277788e-04 4.6679718648346518e-05  -3.9500685967012806e-03 4.6850674981447900e-04 1.9425532332492033e-05  -3.5405917643247845e-03 -5.9845556308060007e-04 -9.4740097043023104e-05  -2.0214743270489236e-03 9.6656987013599019e-04 -3.0852123051099802e-05  -3.8137372148199398e-03 -4.6084357915233646e-05 -1.4967755819901674e-04  -4.5401289568429565e-03 4.6340044660062527e-05 -9.2292153389526236e-05  -2.7844600258462473e-03 6.0445614639629294e-04 7.9070166212854000e-05  -2.6755533223032655e-03 7.8392444992540745e-04 4.1865745260283864e-05  -2.6148528555974674e-03 3.9551398026543659e-04 1.1391127569565064e-04  3.5551984963078493e-03 -7.0641374603065471e-04 3.8475643468974732e-05  -4.1814985373276551e-03 4.4726189440056724e-04 -5.6952404648314584e-05  -4.5828856301379220e-03 2.1064644657258589e-04 -5.5196423987346539e-05  1.5080208172572626e-03 -8.9664498762723275e-04 -7.2771512698015497e-05  -6.0003724885072073e-04 -8.2823961630886617e-04 -1.2105118191737863e-04  -2.1325034069261258e-04 -6.2171688984303337e-04 -1.4956497243437053e-04  -2.4906755743278838e-03 -2.3728522720911169e-04 -1.7293533294233010e-04  -3.4789882372273980e-03 4.3915140271695146e-04 -1.3034891160209982e-04  2.0625385003272658e-03 -6.5483006341234831e-04 1.4348503952996190e-04  -3.7425246401194020e-03 6.0022377429269495e-04 -7.2289469624929700e-06  -6.9437984850991116e-04 -5.3015622428743265e-04 1.4672428941013297e-04  -1.5960258389368291e-03 -2.1929813063808644e-04 1.5017302361866451e-04  -9.6333547222900021e-04 -9.8869679897559039e-04 -7.4030788075523155e-05  -2.0373037363508604e-03 1.4817690068086106e-04 -1.8119929004882819e-04  -6.3197002287263178e-04 8.6860874621595566e-04 1.0025588821510044e-04  -3.6522798528149394e-03 1.9457660936855525e-04 -1.4780533930434584e-04  -4.4486206137928520e-03 2.1800025450757779e-04 -8.9365858229906246e-05  -4.7123803901504896e-03 6.3795308612957531e-05 -4.6176871916967825e-05  -4.7402774147636577e-03 6.3689995518631309e-05 -4.0520949832620066e-05  -4.7791197797782898e-03 6.9864991529646132e-06 -4.6252175924779000e-05  -3.2052670283104689e-03 -3.7315456470263421e-04 9.1838782333046961e-05  -4.0863872354611318e-03 -3.2666839110914866e-04 3.8423523227290841e-05  -7.2703520615874438e-04 1.0017126099510249e-03 5.4893191934052647e-05  -3.2143349926593294e-04 -7.8293018166458435e-04 1.2086616548199447e-04  2.9877759788480836e-03 -7.9736089994439970e-04 -1.3265533236935492e-05  4.7297893540120192e-03 9.0677398304321721e-05 2.8670566940202289e-05  4.4894685630329426e-04 2.9941661528757918e-04 1.7440810101991704e-04  1.2870937644295925e-03 1.0244870662827279e-03 4.1004013180124861e-05  -2.5967582074654170e-03 -6.0180486599823520e-04 -1.3916533319589575e-04  4.7539083854162816e-03 -6.6582004185535945e-05 4.1475363389316066e-05  4.0832122056122556e-03 -4.7978167348143228e-04 1.2221119095641688e-05  4.3673617719646989e-03 -3.5082248745082231e-04 4.0874301566140619e-05  -4.4334664844649374e-03 3.1450689485125981e-04 -2.0217018496768587e-05  -2.5538710693700476e-03 -8.9195795544176431e-04 -3.7124469898641969e-05  -3.7312817232951594e-03 -6.1681443493484805e-04 -5.7555841183553037e-05  -5.1378924562159062e-04 6.4554755489576107e-04 1.3826635057437894e-04  -2.1971190706349384e-03 1.0710594813878900e-04 1.3879711922083811e-04  -3.8630735867339889e-03 1.3552483786318631e-04 7.2988034194818228e-05  1.8448857460792605e-03 -9.9244977513734435e-04 2.6629000656533796e-05  2.1203277877852674e-04 1.0637579281387295e-03 -2.0058086303261829e-05  3.8686843971060896e-03 4.6681309983891031e-04 -3.0810130736275367e-05  4.7527256224300426e-03 -6.7385806322983608e-05 4.3835136298717602e-05  3.5589197424832990e-03 2.1677195642366795e-04 -8.4309730755150099e-05  -4.5949156380872287e-03 2.2922064030164943e-04 -4.2456335488419233e-05  -1.6378732272211347e-03 6.7042189504608188e-04 -1.4610326904063658e-04  3.7293715693166229e-03 -3.7678220603285650e-04 1.3069463517252164e-04  -4.7126187238876538e-03 -2.8685337287417120e-05 -5.1490254022475651e-05  1.9368044855193486e-03 7.5172028048420584e-04 1.3006342539551371e-04  2.2235079173150759e-03 -4.7069278476768913e-04 -1.2341932189946075e-04  1.1479516740371184e-03 -1.0165572509218863e-03 -3.0008724120573871e-05  -4.1111093166062204e-03 -4.1904519103826078e-04 1.2912912207182393e-05  4.6091257736907195e-03 2.0707289872969189e-04 5.4583006521808188e-05  -1.3788871357513002e-04 -2.7299480001394255e-04 -1.7302322854556739e-04  4.4995496725026467e-03 2.3898758721391513e-04 9.4151480203200802e-06  -4.7464296961754193e-03 -5.7896429713725584e-05 -4.3292731150679922e-05  -3.5277539205121719e-03 6.8024650629212500e-04 -3.4201528641100614e-05  -2.4623696683666301e-03 8.9340889106712541e-04 5.0675564668295780e-06  4.6520623428980244e-03 -1.5352158797165682e-04 4.2024737499127451e-05  -2.0554630238272774e-03 -4.8404477589636630e-04 -1.6134718359120268e-04  2.5075231637145170e-03 -4.2827713037943567e-04 1.6560463018705886e-04  -3.0073121418608194e-03 -6.7500253054274503e-05 1.1494410922696377e-04  -2.8059505734363915e-03 -8.0360547467758813e-04 -7.7194995534600049e-05  4.6343838692737465e-03 1.8416718895266417e-04 2.9726868251284319e-05  -5.7723209157350931e-04 1.0602820810959039e-03 1.3042353776922010e-05  -4.3688290719140245e-03 -1.5570144229055241e-04 2.7818037923293741e-05  -3.5687248503581928e-03 -1.7930250501865271e-04 8.6430259724970288e-05  -2.3187909656250997e-03 -7.8135912743431508e-04 -1.1078052140561231e-04  -4.2283929158146117e-03 4.3363561450772723e-04 -3.3247303967845315e-05  -3.4732218359386473e-05 3.7895417908250831e-08 -9.9024809339081881e-07  -2.8165491152949826e-03 3.5753651545353379e-04 -3.1052112313345670e-05  3.8599155152479921e-03 -1.1733514285246530e-04 3.6610609114761332e-05  -1.8281925091104400e-03 -4.0883348849339596e-04 -5.4613681013082671e-05  3.1381987940097798e-03 2.5694723579714509e-04 7.7765866964443109e-08  -2.2508523067643034e-03 -4.1019945680314528e-05 5.1521664640975926e-05  -3.9158896361966766e-03 -5.8335068646052679e-05 -3.5476919657741078e-05  9.0480489057351526e-04 -4.8625788784581843e-04 4.2145841060274015e-05  3.0003722176132458e-03 2.0623733644840214e-04 7.4471321182041628e-05  -2.4538178189083670e-03 3.9265200565063104e-05 -9.1789516853457302e-05  2.3227323679154768e-03 -3.3252929308813517e-04 -3.6285367782746406e-05  -9.1684185572347184e-04 4.0820282455089694e-04 5.7503737957155902e-05  7.8159924188083644e-04 6.0054302361198979e-04 6.3538680934358404e-06  1.9224365980377836e-03 -1.4787798273585036e-04 1.0160380569442365e-04  -7.7143098610649088e-04 4.6452586373970322e-04 -7.5060433919423318e-05  1.7166975049876831e-03 5.5914935211901458e-05 -7.4145062663920279e-05  -2.9319711482100690e-03 -3.9560693508315355e-04 2.4636959197949501e-06  -3.9006507022755809e-03 1.5773616127791977e-04 3.1634677121188263e-07  3.9756338196429526e-03 -1.6664146808484211e-05 -8.4076250935675765e-06  -6.8236406701569700e-04 -2.8170000735763768e-04 -1.0549592564054776e-04  9.3942806326207805e-04 -6.3787248322334431e-04 -1.7597994565555784e-05  3.5077700354805784e-03 -2.9529540051430515e-04 7.5683543234370478e-05  3.4373911152003655e-03 -4.2352394499989916e-04 2.7787739122718406e-05  -3.8554012651417467e-03 -1.7516408729914155e-04 -7.8516253793095689e-05  4.2770055763593539e-03 1.2152335789283227e-04 4.4497435587738342e-05  -1.1675421122147949e-03 -4.1287791295556019e-04 7.4880316851081994e-05  -4.2110313002909844e-03 1.3684241240274021e-04 -6.1090960197116871e-05  4.2166794142534754e-03 -2.6072236974807043e-05 7.4181577850332905e-05  3.3861792135076096e-03 4.2226040971311314e-04 4.3688359212038125e-05  -4.0755671773594244e-03 -1.2862187925334186e-04 2.1757466557741921e-06  1.2409061446107576e-03 2.0492126406170490e-04 1.1624746321534606e-04  -1.8021586906179679e-03 6.2900521491608046e-04 1.1809385281624279e-05  -1.7311326801834758e-03 6.6595870043255790e-04 -4.4017023879071676e-05  2.0168230842718335e-03 5.7846047776489518e-04 -3.3747938857111968e-05  -3.7291234446921941e-03 -3.8523936689902749e-04 -5.0609578318221934e-05  1.7493476385023994e-03 5.7572796514366534e-04 7.2114089244298916e-05  -1.2525043197717729e-03 -6.9131732217096481e-04 8.8098979316249961e-07  -2.9187035875752865e-03 2.2760528653480887e-04 5.9003273859660485e-05  4.1288987100142876e-03 -2.2286534136471925e-04 9.8756622644454517e-06  6.8387069918068324e-04 -3.1493194962467616e-04 -8.3279214882321704e-06  2.0561946081053099e-03 -1.5549405401207343e-04 4.7682714391779208e-05  </DataArray> 
</PointData> 
</Piece>
</UnstructuredGrid>
</VTKFile>