<?xml version="1.0"?>
<VTKFile type="UnstructuredGrid"  version="0.1"  >
<UnstructuredGrid>
<Piece  NumberOfPoints="201" NumberOfCells="657">
<Points>
<DataArray  type="Float64"  NumberOfComponents="3"  format="ascii">-0.002052516519579608 -0.001699365016416437 4580.8633807638  -0.002866181633650221 0.0168207978926209 -4580.863490551759  242.3430033345346 0.0231175385267852 -4356.608238501595  460.9133155373279 0.02930789805917634 -3705.834973066016  634.299436406075 0.001921224550245358 -2692.341837449316  745.5665399706407 -0.004891759533927994 -1415.402151403055  783.9070077540681 -0.01120356986042454 -0.002087418898505971  745.5645464593522 -0.002353347556080321 1415.403724351494  634.2950840846589 0.01195903018664566 2692.328509276395  460.9163411998216 0.007158462441333968 3705.827067277251  242.3455130906177 0.002109537776752604 4356.606218743381  307.0461969092293 -1433.846790660523 -3982.655167239559  305.0327534517151 1113.775137227017 4081.565734527026  746.2435040544716 -1277.213401356946 -679.0139843127392  537.4114187541227 -1393.181510273737 3054.313957646738  678.7975601878555 1291.618155936471 1926.011884645302  675.9774086101485 1291.603782170359 -1959.612881047516  342.8447444823706 1283.451087910278 -3930.208366770577  118.1443517763693 -1283.256240918965 4356.743715469756  533.9154943969995 -1283.743170908581 -3118.908868253903  371.7626841313896 -2518.386481770994 -3223.509083751869  552.293456375184 -2468.951116863494 -2220.060242775339  378.8410181510913 -3528.817096983616 -2132.610983995667  533.7006925083934 -3312.344189093591 -1050.18843702218  335.0092243375121 -4201.351185797324 -892.1701987215552  476.9147351956976 -3770.898798816029 225.6670375466376  250.5921949007794 -4488.526238024723 407.191478946008  363.4012649665772 -3899.643770123735 1544.639346098668  130.9346822900426 -4369.354751913621 1642.666569907343  232.5526464058892 -3563.960231406697 2713.7759777527  -9.038829932270371 -3828.109830301899 2719.11003780612  557.0879955550412 -3064.018368298552 1303.374206101279  533.9161728202222 1283.740299243613 3118.913314220268  541.0875006149868 2485.194944636192 2296.171543163919  655.1876168490429 2381.861511525874 1039.223984279033  86.97894379833296 -2844.262882187226 3636.720805861345  318.4531145803675 -2494.399551101431 3428.876600869428  371.717614679088 2374.735332795191 3323.187642016025  358.2682688304561 3474.192120120625 2327.911887689976  747.6684292912423 -1246.075249775175 678.9238465106596  659.3929320472871 -2574.738368255812 78.62621660067568  680.2967575605944 -1292.775133310918 -1907.108021764938  118.1422563112327 1283.274793769043 -4356.758240429885  528.6087260707071 1251.524173094696 -3161.646457716129  536.9463850769558 2471.797882439841 -2342.256777992208  162.587818421827 -4238.98556179597 -1850.061432394506  -113.7587513847704 -4421.258190352287 1555.10557894908  158.6140731672531 -2582.649035438826 -3733.919312911962  650.7099162847516 2410.250046385978 -1073.966106290694  486.800332552822 3481.2997398656 -1292.861598424089  345.6701870080408 3387.583683516165 -2504.427520492759  272.9837197708879 4218.86506970995 -1394.009776625227  120.5912772096405 3961.147246882027 -2437.232637603605  35.31469155345945 4567.139398341499 -1265.054081973517  -123.6311855199448 4075.628368338851 -2249.831698970097  -204.0222614967933 4485.634366393072 -954.0606740696567  -359.4705538042863 3831.125772294929 -1724.330583598452  -39.24518339505825 4750.372838409436 84.48121163025571  -250.6070167571123 -3680.297879264718 2507.21143814037  -346.1904624926344 -4070.392818212381 1241.270055809005  -422.0739694339092 3981.640154399944 -465.9860184498739  -557.3553481260005 3114.875605701455 -1182.4013882062  -593.673992176207 3108.137102960957 105.8066941418265  -696.1677781593061 2050.914624443581 -739.0092957470428  -705.6916209086285 1946.743574299536 689.5333208606154  -618.510572918673 1943.637861109681 -2104.412763501009  -570.8765870366877 2875.976023288827 1484.123718225155  -736.3611357814736 850.2346024552561 -1341.96719051353  -651.9350315923209 1600.179547026138 2026.082376047717  -626.8764812675805 545.7172081687146 -2700.539896144755  -703.884868584815 -617.456431837484 -1927.475511246569  -485.1315594343834 2411.542361383588 2750.551680436319  -108.3457964577798 -1970.607830097687 4121.089065478669  -472.6200662860032 -3147.984853184424 2044.95292485419  -563.3483841418732 -836.2467374210906 -3082.72494459523  -608.6857676347034 -1962.96657249845 -2184.072191921743  -753.2396129326834 539.6014239504566 1158.119910899446  -262.2708022912569 3172.445375361774 -3050.95168611262  -536.4556598666442 1029.774639597158 3190.452869556547  168.7305146410607 3205.46704966884 3238.371501485301  -725.8500310356269 -1608.374360167445 -776.3366008516672  -456.4557606463368 333.9703649852293 -3710.756690636939  -355.6786341507216 1834.649654464539 3680.739361207383  -438.7052910689039 -2111.197982042642 -3207.311571468305  -459.4497547010689 -3143.726318918092 -2150.642102972658  -387.2661255225607 3539.907862034545 2062.856754128894  -197.8160486587735 -4593.548575120551 294.823649763097  -374.5414123097654 308.8973985199221 4013.517806196719  -553.34071691299 -446.3536851836772 3216.777344316215  -265.2241094153923 -3152.134339535363 -3061.73166846026  -266.1726421197351 -4018.78106324175 -1896.41609720927  -228.4955211625023 -1995.847487163144 -3938.302585672411  397.8636027803186 4098.708973373824 -129.258738411247  -534.8887509778896 -3376.91385175907 812.1313182758955  -643.8379889363035 -2280.850430767471 1420.880455286181  140.5365996535898 4127.304081418291 2125.261695552239  -50.72708509297439 3722.179533767643 2837.326456886047  -17.56706377495485 2804.512148910427 3698.825321496749  -212.454656279465 1184.908405022197 4259.396834961099  -354.358843819344 -2574.010490154009 3249.500512151302  184.9928629888412 3133.798781839432 -3272.962305596601  -439.770770750273 -3801.036446183834 -999.9018563464622  -58.09086759929979 2403.863036408907 -3938.465137599618  -128.7009142744653 1030.662971731032 -4408.439285712756  -87.33462543204806 4443.363843753856 1554.864363041962  -165.7021302896967 -729.5324502717008 4421.974234622748  -56.70744128186868 -3897.802228877034 -2605.308674451328  -358.0161102747272 -1172.486583819203 3916.1169702901  -551.9043178982301 -1888.092116057147 2699.328933682194  -686.9217904057094 -907.7083505419623 2027.680970604863  -751.5529456223396 -1178.534654980567 642.6960139582093  -780.5319483110396 -153.3050490941068 -397.8724532681217  -301.2487770363155 2042.618069399518 -3744.407239113175  -456.8741451137352 2259.741447437495 -3021.59793939531  -66.74616839658573 -4477.139248932803 -1498.716704938852  -26.68992542406027 3514.300414130257 -3083.627194831782  312.9303628869486 4182.356534024882 1196.091026326369  675.7580227886288 -1235.658171496396 1995.366503957257  39.19076147376441 -1346.70025083086 -4387.522450664783  124.0690879072022 -4639.939812725436 -705.4485697885968  -238.8978825639009 3038.300311720936 3237.266640905838  749.422640582973 1197.479433206342 -693.4843105820293  501.2238691190217 3449.746766148347 1178.247316455601  591.1944823522593 3126.956100686188 -52.35292690923107  -598.8125880961901 -2827.989741849716 -1158.150024340443  -260.037662871304 4473.406466197289 356.5596557159226  -436.1470966356994 3858.239323223035 837.8605403045186  -42.54657509304464 -2907.741709820776 -3617.077028380783  -182.7557884158352 -530.7041982576692 -4425.318163714835  -385.2506446775452 -851.8560769944515 -3904.677647017145  181.3286742771596 4622.204763074563 -234.0045243541957  21.25280773587456 -4725.942490815737 508.9928443029667  433.1590178007348 -3005.817365574893 2492.146515740421  750.7459367692891 1212.804222610323 615.5002655765809  343.0397204056978 -1274.185808130459 3932.410993068811  -663.2784230771226 -2536.300714540849 113.0977046495768  -140.4278682225035 -3138.085889117003 3343.891353539487  382.1602309079328 2302.246225673744 -3330.02107846712  -671.7277227078122 379.3013332933438 2333.599483087691  176.1428278371271 -3541.932486181826 -2880.117523664351  192.1410428592066 2283.919772899383 3858.6344812046  111.8151052798366 4601.323386985805 962.6214733272776  -487.8628273625715 2982.511544011366 -2149.978856955164  655.8089172767791 -2293.742683186921 -1197.108780374433  -12.00213627329355 1236.957092193929 4422.756608527882  594.0341730881092 -2232.147445808678 2080.026462067518  -761.1759022627418 1134.306022020867 -104.1810800230931  -405.5994023113528 -4072.720718335711 44.18389503399847  -247.7445137534885 -4444.814318809459 -759.0604274805688  703.4470138686614 2102.361387658997 -31.87140710315615  -175.0862030633405 2343.181024952017 3853.362753540763  217.8637831862547 2127.897311003484 -3894.53594134972  -264.4029030448914 349.4174893356831 -4299.482969874085  -286.9140356001523 4162.20501601045 1455.291228276287  666.95673244107 -2133.376547874608 1259.658567114196  -53.46393287032553 -4722.022646429553 -459.9323174596026  -502.9163582935173 1236.732481110052 -3306.814838523748  -343.7391052595063 1050.837774248361 -3991.085595722688  -219.4221655120272 3826.829449831714 2401.16041503733  -551.5966449314444 -3372.93909952304 -256.2429651558132  -0.002813314621069306 0.0004426211424443636 -0.004504849843717075  -250.0174135582671 -1862.20054125329 126.8842285455355  377.9841131480886 726.2778831375289 -20.94604935007921  -150.6141601601726 1957.262583163035 1009.136144278044  281.7751140995689 -1387.557348676454 918.0457067714251  -183.5647489989244 203.0755413609459 -2039.52374193851  -388.74738507256 369.655132517083 1.6842665840245  74.29340207906391 2213.881190067937 -876.2893984966709  262.5962309337604 -1091.032546975459 -1372.225257986076  -204.2511869087654 -207.2919117886087 1978.138552516216  195.890055515494 1647.273706242101 1595.075398062032  -72.34062428031635 -1879.777594006919 -1732.710853038107  64.71835722546174 -2714.966099225183 8.471262443958762  155.9589353836063 720.966
[...]
<PointData  Scalars="Pressure"> 
<DataArray  type="Float64"  Name="Pressure"  format="ascii">-2.5928625668101241e-02  -2.4295250065498781e-02  -2.8643327155466775e-02  -3.1408116191727634e-02  -4.2368744999107956e-02  -4.6807078838003460e-02  -4.6948724484156434e-02  -4.4104195676170008e-02  -4.3183115823936115e-02  -3.3603155849209969e-02  -2.9565285383756537e-02  -2.6787075070985600e-02  -2.4829099588127419e-02  -4.4376047700048361e-02  -3.1665747486795931e-02  -3.9623929221590096e-02  -4.0041396846732226e-02  -2.7169203976918542e-02  -2.3289363926299027e-02  -3.3670949943787533e-02  -1.8254571068213727e-02  -2.3317784834408814e-02  -8.8299267429366897e-03  -1.7193006764279779e-02  1.9244869210730446e-03  -8.1861586411868959e-03  7.7602642193147263e-03  -2.0490754525933595e-03  6.1102608128266499e-03  -4.0765849393130877e-03  8.4148397049360472e-04  -1.8772457643923157e-02  -3.4517440611191497e-02  -2.6115032273182404e-02  -3.2534209995849592e-02  -1.2793096525523316e-02  -1.8661488967940003e-02  -2.0301546364443354e-02  -8.1077936595288919e-03  -4.4953778872801220e-02  -2.9291658174861283e-02  -3.9728470620976890e-02  -2.2111085012982146e-02  -3.4077473169417352e-02  -2.6060965473097396e-02  3.4158826595486569e-03  7.3133588661896329e-03  -1.5381726775071646e-02  -2.9071676875159620e-02  -1.2622934769606790e-02  -9.5955308686620899e-03  2.9496269359730837e-03  1.5929458757449693e-03  1.0267291786837801e-02  2.6107745448732656e-03  8.5255141282804293e-03  -3.5851962284056270e-03  1.3074706897006787e-02  -3.6099946247873829e-03  8.2897122020055599e-04  -3.8829651451686652e-03  -1.8470821954614820e-02  -2.1866259073181182e-02  -3.4426968191874116e-02  -3.5185329388345961e-02  -3.4236442181165276e-02  -2.2859724104840981e-02  -4.5418931968391078e-02  -3.8112879376640880e-02  -4.0764173249170067e-02  -4.3127822087127288e-02  -2.3808009299488665e-02  -1.9310290747038883e-02  -1.5809051266508424e-02  -3.7197768375404464e-02  -3.2581895027824430e-02  -4.5592008476180446e-02  -1.0228225913039962e-02  -3.5966331232747721e-02  -8.2733862542389361e-03  -4.1309826276923110e-02  -3.3355917732928522e-02  -2.4713205514489429e-02  -2.4627195634401761e-02  -1.5530067853153622e-02  -1.0089421727295281e-02  8.6223099000188180e-03  -2.9997284214178264e-02  -3.6831761209705036e-02  -1.0850711772704642e-02  1.2427774817783653e-04  -2.2772177033374197e-02  -1.3392215648613964e-03  -1.6260350016162609e-02  -3.2057844236027089e-02  1.7224223679421550e-03  -8.4814775716623872e-04  -1.3279743364853349e-02  -2.7925411232367189e-02  -1.8011550116008596e-02  -8.3234956805595672e-03  -7.5369570471444875e-03  -1.5974619466094596e-02  -2.3000870935565576e-02  9.4288416432314979e-03  -2.4147063548892459e-02  -7.5471720075234857e-04  -2.8476642474434252e-02  -3.0916689996669047e-02  -4.3822965559872799e-02  -4.5722853940650732e-02  -4.5548114347975815e-02  -2.0725587472056835e-02  -2.4086796763185168e-02  9.2433438590519921e-03  -6.0449482809017971e-03  2.2562029944827380e-03  -3.8905484033827098e-02  -2.4377766592119300e-02  1.0989007976664888e-02  -9.6301508938622278e-03  -4.3608632145134621e-02  -1.4711340810794225e-02  -2.0362332017114983e-02  -2.4301577358719170e-02  7.0540772376234059e-03  -5.8453702364229662e-03  -9.8480380321586888e-03  -2.6645802116592603e-02  -3.1716098383833491e-02  1.1401951691716757e-02  1.3255195807793959e-02  -1.6962130934303411e-02  -4.3718935373249647e-02  -2.6937065406392947e-02  -2.9856821617080923e-02  -9.1717717174698097e-03  -2.1370829453855811e-02  -4.1920175389654368e-02  -6.1283701162896075e-03  -1.6403377165085092e-02  9.7169649202104875e-03  -1.8761824595580651e-02  -3.2580152827151085e-02  -2.5122943215787681e-02  -2.9350117910115877e-02  -4.3210928347262471e-02  -3.9905646109901185e-04  7.0437564259926439e-03  -3.2667058572646089e-02  -1.6887637229015366e-02  -1.8903725856615771e-02  -2.8932204527771694e-02  3.1743517058069213e-03  -3.3213183026264984e-02  1.2595338507581547e-02  -3.2880633900356893e-02  -2.6978390365609492e-02  -4.3724391893930434e-03  -1.3814811225433401e-02  6.7257270028820815e-02  4.5974252570184115e-02  3.7316403405079850e-02  4.7723604187849905e-02  4.3691689033432839e-02  4.0981373685253508e-02  3.6049301850767781e-02  4.9632620364686714e-02  4.0626172320916885e-02  4.0782730267963668e-02  3.9735187165809593e-02  4.2294413497796404e-02  4.8124822163940290e-02  3.4951427787395156e-02  4.1393246345070141e-02  3.6368391915192727e-02  3.9942988728305720e-02  2.8451809343778112e-02  2.5012604225640066e-02  3.1718609618278909e-02  4.3115101284501162e-02  2.8119568503484314e-02  3.2140979294611370e-02  2.5019122002926077e-02  2.2103203147360844e-02  3.2013674834840015e-02  2.0906462055777356e-02  1.8907090901347120e-02  3.0951955768323040e-02  2.0642032839339214e-02  2.8529899374334682e-02  3.8024870729874906e-02  3.6811909963851995e-02  3.3704033197607577e-02  2.2864448552200108e-02  3.5267360390407995e-02  4.0552571543098229e-02  2.0302650727334143e-02  1.6985668101286499e-02  6.1352952229645472e-02  5.6169550768532847e-02  </DataArray> 
</PointData> 
</Piece>
</UnstructuredGrid>
</VTKFile>