<?xml version="1.0"?>
<VTKFile type="UnstructuredGrid"  version="0.1"  >
<UnstructuredGrid>
<Piece  NumberOfPoints="201" NumberOfCells="657">
<Points>
<DataArray  type="Float64"  NumberOfComponents="3"  format="ascii">-0.5624088743191873 -0.7438428340894886 915.6194049551403  0.2494498379110823 0.678781180440953 -915.7062246115078  1814.408956386799 -3.677025358747666 -886.7455031178711  3443.957847479141 -7.096274767470305 -771.5405468347823  4727.909850898582 -8.920435235593182 -577.3964230397959  5546.931567573694 -9.536958177579155 -319.808099835371  5828.206738977457 -9.744864006482707 -28.75686008258539  5546.882799065694 -9.751716791579778 262.4278987883034  4727.663304638127 -9.281659314940834 522.515419496812  3443.49446578075 -7.871905367398147 726.3735124931945  1813.828679104701 -4.780784479819673 860.3049505657774  2299.357775234388 -1699.450865787219 -795.1589957016082  2278.318384336905 1310.802717976609 786.9189249291165  5551.385796592346 -1511.586572716617 -153.1286500433236  4011.424363804613 -1651.354639663471 617.27333716097  5049.42210826371 1511.345251050166 351.9574446170648  5028.952610402341 1511.354418775355 -445.2232937231823  2559.574452512 1511.293378513533 -830.2383815584039  887.3663229897292 -1520.929693718734 889.2411640931873  3985.96711035661 -1522.058711517763 -640.496489056884  2778.760987030625 -2976.870322913945 -635.4394392895532  4117.196431279571 -2915.59880900316 -445.7862655704042  2825.758018072646 -4161.103395616755 -407.1654874729713  3972.954288974858 -3903.583976807712 -197.4489271731422  2496.167540972503 -4946.710223710202 -146.7380170300368  3549.407597363697 -4440.985402395306 72.271893040668  1868.556679830597 -5282.484719554797 126.7963935967881  2708.564472746274 -4594.581888013261 350.709717024562  981.4268677371613 -5144.735087123351 385.9255180477753  1739.351434844207 -4204.783666351378 592.2562666157443  -59.19592092880249 -4512.308865985482 607.2981357932833  4148.067228990811 -3612.68867866881 283.2494809745968  3979.603227831287 1505.595699616406 591.6007426610171  4022.698431731915 2918.867223901336 414.9455413270633  4865.580420400619 2792.726493184287 160.9981582407025  655.8230331671861 -3360.871742379674 774.621341865408  2382.545023407838 -2949.904042064893 716.9439203625843  2767.19592676941 2795.745351418377 621.7377017669423  2658.474932055176 4086.349496116684 415.1715784189583  5562.043136596373 -1475.068851840397 126.4979380736953  4906.057120393973 -3036.434477269843 21.35243750705308  5067.00603499814 -1531.15166504667 -402.725289244612  881.0734148787536 1516.743616371788 -901.6429098103715  3940.660493348151 1468.476665240867 -684.9465438913287  3992.251210385722 2903.685993477953 -533.6327263006929  1216.959509094484 -4992.643123811438 -332.2442306711899  -837.0522368362759 -5201.773583262064 378.2278746283896  1191.078867609556 -3052.90328091339 -721.413240588631  4832.525422286796 2826.566614542773 -274.0798583663534  3610.685685315187 4088.516668300242 -326.0591189971629  2566.08856844177 3985.870579581168 -571.0880226995296  2019.905192984298 4959.883728960129 -348.0101067765156  889.2162035048523 4664.859956615815 -555.426938919496  253.3671925189409 5372.902277266812 -316.2856711482142  -928.0567273189624 4802.584391786161 -507.970798015191  -1523.721172228916 5279.6124646032 -241.6183952297451  -2680.459390962025 4515.118608244846 -387.1643446918017  -300.2956835211236 5586.827732083548 -36.44050685800834  -1857.681043016076 -4332.699718604889 571.7644593880274  -2563.84178146054 -4783.914950632004 317.3843367196621  -3142.683236272497 4688.916409555058 -126.5158807106968  -4149.382404105515 3672.679711103709 -259.2423642793096  -4416.983736545869 3663.218666332884 8.002530699835491  -5180.031518680253 2421.202092158484 -149.9674850287915  -5250.529288741799 2298.673722093175 145.8942068010309  -4608.441926232662 2297.501655561226 -431.0645999010513  -4251.08561484668 3392.379430865049 292.5752659588316  -5479.441984361636 1010.149053493644 -258.3581787388546  -4856.511013072336 1892.946625580759 421.8381029716668  -4673.391447703428 652.6254872448025 -532.1288765881201  -5237.550222474258 -717.6082326845205 -359.7392213547968  -3620.578671104039 2849.800351052019 549.5108177672572  -805.5142566928594 -2328.537383968189 866.3197100417632  -3509.619830318382 -3700.001643040594 478.0377669567333  -4199.743859387395 -977.5662653326752 -589.9524604333905  -4526.559542585127 -2303.061888552138 -397.067664969449  -5603.56870713093 644.6670145688785 260.4137695288006  -1962.012041322908 3746.087076177876 -653.9341559682672  -4005.052932979831 1222.883421315291 658.6239979344087  1250.727070755842 3778.612111894327 602.4838257273469  -5392.282660201695 -1882.434145972839 -114.2872647734766  -3410.700117001897 402.2569569147515 -732.8889464249606  -2661.268958078308 2172.472714617575 732.9934678472957  -3266.843374229862 -2483.548495494793 -600.680444637488  -3411.878602827185 -3695.112275857474 -380.6994574477507  -2888.363886075412 4174.398559681374 393.1501763152835  -1459.95722936123 -5399.105896644216 121.7887076305861  -2801.718347348015 370.9615179321668 822.470122907715  -4127.873930995384 -518.3043266350256 685.5706167597817  -1969.564785526369 -3713.048061896442 -565.1229256739206  -1970.693954251093 -4726.947185780386 -326.8959999215282  -1702.550407484426 -2354.332276558639 -749.576502239264  2946.526751177764 4813.582099058301 -88.97688020803864  -3967.451850125746 -3964.557405420724 226.9876882663628  -4782.964002419975 -2675.210302646899 344.4530285297212  1036.612222589051 4857.814811081071 375.6774254161346  -386.304069422432 4388.661303001784 528.0629063112528  -138.2262606912084 3312.010812297872 704.5275813904558  -1593.224997851971 1404.81305956646 846.6417424383436  -2637.076855151154 -3031.774986338311 713.5802404575106  1372.470129426132 3694.952046164187 -718.6029862373492  -3259.414099050681 -4465.024299278073 -143.3992987070222  -439.8071976725191 2842.26410435629 -829.1755390791465  -965.9761277433486 1222.457933551646 -894.173818892438  -657.7335624026978 5230.436888016671 267.6136317126339  -1238.859594142809 -861.2142054871374 907.3888243282335  -413.7646186506905 -4592.427660927521 -475.8441659850252  -2673.003051055542 -1379.895487709145 826.5498203259498  -4108.217616649379 -2217.608040687467 600.3180889257724  -5111.389666827587 -1059.596129679214 455.0622945040389  -5584.432216334057 -1376.721090563149 173.9112111590576  -5802.537248103377 -170.5656407732531 -51.68601951281067  -2255.323881465693 2418.242328541319 -773.5112577392388  -3411.760675262497 2672.319352429544 -626.5270680089295  -487.5676036479164 -5267.703591904509 -249.6635534323673  -206.7208505759122 4145.544283940846 -675.7663015352143  2316.320907519193 4915.174237564102 183.3863420969836  5033.408522560317 -1464.013403496898 397.4512869289965  296.9255761284381 -1593.455698529877 -857.7864664154013  929.7027252620427 -5459.226059269478 -95.05900074504724  -1788.622716326385 3588.565011205895 623.8474760991509  5569.426677294226 1398.889096905805 -184.6430674309105  3717.523364371778 4050.695715820193 181.9811209829593  4385.537194562153 3668.594196918785 -68.54848602663425  -4445.093185040662 -3318.679289720778 -181.4433891012227  -1939.099678869055 5264.927969204186 30.94911603015843  -3247.528890564119 4544.542302794906 143.6197785491225  -310.4489471421762 -3432.637725351656 -683.9263472730283  -1366.533521381368 -623.9789791202689 -867.3507099870137  -2877.240446558019 -999.4824909089635 -754.3302391255584  1337.203261091225 5432.896180966711 -109.0474432643103  166.1289155423212 -5558.505301893528 159.462877021771  3231.722233240424 -3548.265597050143 531.0677145416064  5578.95187752282 1416.893891857276 84.97110086240987  2567.025414247541 -1511.900566876061 796.0966106074011  -4923.609185801242 -2973.78974962234 77.13514296503021  -1040.413487682012 -3701.336601177126 731.0181437811395  2845.798030524754 2710.824813440552 -727.1435607141191  -5004.086635984455 456.0954405781636 500.669307254628  1319.932711539742 -4178.763131413163 -544.6236521889804  1429.600501905958 2694.779910394232 731.833751097847  821.3315468293119 5410.59300924231 138.7208559534873  -3637.264704598968 3519.865205044031 -458.7004068649038  4881.706574826336 -2707.123866247056 -244.2984862096001  -93.55388147537623 1463.14490038297 864.7491167924942  4426.61865671221 -2637.076767915015 430.694506465779  -5661.014019764726 1343.60695421886 -6.627533919437954  -3003.667166741806 -4783.784383801179 71.63103194045675  -1831.054807107268 -5224.078702995553 -94.26784362805583  5223.871747312162 2462.99023545925 -56.64006122873761  -1314.198798912984 2771.083368348167 748.8831889755174  1622.995968894756 2510.806502146522 -830.1496462911023  -1979.426158713042 418.6623428524709 -854.6370044204122  -2140.429568379192 4902.296067362715 259.350408794128  4964.638507057762 -2518.87031483995 259.0050345671366  -388.6123609561038 -5552.74428110661 -36.99623054179668  -3756.078338707019 1467.614683784746 -666.1892994176444  -2572.256831274464 1248.255941318646 -803.8425312097451  -1641.116619789748 4511.554746864578 449.4640750107405  -4090.610163207654 -3958.888910408175 7.023851050991911  0.01553380580294933 0.0441947801361259 -0.02244516662949383  -1865.581922779395 -2196.186154824769 68.26410020176644  2826.408829345405 851.8060896202622 -35.1523339135206  -1132.38784670111 2316.009932841501 178.7204784930067  2112.441022183657 -1645.1016734782 192.7771658242509  -1376.361719072678 243.9936918219949 -401.7226713604146  -2910.061822408588 443.3264125356688 14.23183210244927  550.371298134578 2615.330710550334 -216.3188365985994  1969.299493569882 -1294.325460785493 -271.3669427363162  -1530.183739344094 -241.8438308196324 410.958097720308  1461.975274867411 1943.54795345398 283.0592707206261  -536.4116982349196 -2220.949818905618 -312.9183894443871  490.3221114302859 -3207.760690999111 41.09423447209873  1166.803435313651 850.4998026424895 -475.5584837621429 
[...]
<PointData  Vectors="Centrifugal"> 
<DataArray  type="Float64"  Name="Centrifugal"  NumberOfComponents="3" format="ascii">-3.5459984841511916e-06 -7.5362376057704644e-06 3.0807265002923835e-06  3.5379447850492225e-06 7.5357226535639042e-06 -3.0792875242710581e-06  5.2892910848924538e-05 4.8465866907477354e-06 -9.9408599755956718e-06  9.6882249486892393e-05 1.7109195641057229e-06 -1.5809106026704124e-05  1.3114441746613312e-04 -1.5867437566067969e-06 -2.0093361804755395e-05  1.5248465980022827e-04 -4.7744532952600114e-06 -2.2382246493039799e-05  1.5903246689432304e-04 -7.5321804797273469e-06 -2.2488734615927340e-05  1.5023826891102942e-04 -9.5596577143403368e-06 -2.0426924130583273e-05  1.2689627496550977e-04 -1.0625693783341811e-05 -1.6399117933088117e-05  9.1093389761924331e-05 -1.0606627840056674e-05 -1.0774916140426548e-05  4.6140036848874723e-05 -9.5253883006506405e-06 -4.0672603782969681e-06  6.7950763948317446e-05 -3.9135028294144538e-05 2.4156745942899825e-06  5.7389179429782727e-05 2.3529486841797207e-05 -1.6902828483012346e-05  1.5390282460877260e-04 -4.3886582773161535e-05 -9.5109069613190578e-06  1.0912152371151181e-04 -5.1734207793827219e-05 1.5898976416862725e-07  1.3436541941362192e-04 2.8563706081430724e-05 -3.0694000504401880e-05  1.3688151436030640e-04 3.5134996583176191e-05 -3.3289702841734254e-05  7.1036219175666483e-05 4.1481562638440332e-05 -2.5059231258003041e-05  2.2726546802793025e-05 -4.6657343917326981e-05 1.2046316597322422e-05  1.1311122071872391e-04 -3.8126431207542187e-05 -5.0242090381102008e-06  8.2055463023646578e-05 -7.3159726461946299e-05 1.1588627053058154e-05  1.1773859728854015e-04 -7.4906518549198932e-05 6.5616843207044647e-06  8.3986482675591450e-05 -1.0484885904699098e-04 2.1894163072934666e-05  1.1412479098106718e-04 -1.0158248411714990e-04 1.6060873593216445e-05  7.5010736382946199e-05 -1.2630048257834258e-04 3.0487544421702711e-05  1.0223054423748987e-04 -1.1675219455922085e-04 2.3010111756653737e-05  5.7277399504675510e-05 -1.3617228274176321e-04 3.6581384320262295e-05  7.8428556910052459e-05 -1.2181097424535370e-04 2.8446991970154935e-05  3.1911927987378842e-05 -1.3369279081898685e-04 3.9740406161662756e-05  5.0567081579422958e-05 -1.1274821919504823e-04 2.9794537044759805e-05  1.8687465353811893e-06 -1.1827640946183303e-04 3.9303926278970931e-05  1.1666977249665366e-04 -9.8446086533684473e-05 1.4610597855123691e-05  1.0427766111648377e-04 2.7832031331643426e-05 -2.5717254347816722e-05  1.0431121323344469e-04 6.4734507386823414e-05 -3.8077128981123445e-05  1.2843634673101123e-04 6.2562946830504396e-05 -4.1144180027297754e-05  1.9231499272150386e-05 -9.1643361184697592e-05 2.7656860293584377e-05  6.6001805993890275e-05 -8.3073948287638242e-05 1.7432512398144319e-05  6.9439823278913653e-05 6.1562703356687933e-05 -3.1531147017421708e-05  6.5607583432160721e-05 9.5825575575559529e-05 -4.2399348850591093e-05  1.5306790874192836e-04 -4.5278414379043248e-05 -8.9136309035236219e-06  1.3760331275233984e-04 -8.2796821874279989e-05 6.0792338602769736e-06  1.4168251229733429e-04 -4.1703363145826381e-05 -8.3199856445967897e-06  2.5541377240839473e-05 4.4371301651147745e-05 -1.8871885980898004e-05  1.0818700595327013e-04 3.7430365972992883e-05 -2.9545493436002926e-05  1.0715885948061201e-04 7.2180038601871499e-05 -4.1017660618805668e-05  4.0906993922822312e-05 -1.2427940199338420e-04 3.5174272973991202e-05  -1.7566165213759720e-05 -1.3271539201815220e-04 4.7194415676222835e-05  3.9197274910345950e-05 -7.2313627719316126e-05 1.8045507041890629e-05  1.2916918970134507e-04 6.7027551897729036e-05 -4.2754138796071402e-05  9.4426549071868613e-05 1.0073725843983669e-04 -4.8575983727699480e-05  6.7021738415506957e-05 1.0151730484568786e-04 -4.4527284505632983e-05  5.0012989622680971e-05 1.2486339478763977e-04 -4.9668431530722058e-05  2.0364824507782531e-05 1.2061232302557748e-04 -4.3582557889891358e-05  1.1921107769181159e-06 1.3726016725866332e-04 -4.6140877341737626e-05  -2.9544135362372092e-05 1.2602886025255152e-04 -3.7546968923500687e-05  -4.7428585188284630e-05 1.3659740059913979e-04 -3.8272595663565309e-05  -7.7418861771415685e-05 1.2007727807650492e-04 -2.8025357932336853e-05  -1.5259162453794802e-05 1.4105276105101861e-04 -4.4823371903278770e-05  -4.7261834637269048e-05 -1.1115095407587235e-04 4.4644973012923754e-05  -6.4952777835722370e-05 -1.1948875110727884e-04 5.0218576157857697e-05  -9.1251750918810583e-05 1.2290147728491303e-04 -2.6795426598718658e-05  -1.1687578744630123e-04 9.9757887663113343e-05 -1.5017377202141089e-05  -1.2519093715128744e-04 9.7672059757091225e-05 -1.3011369585149553e-05  -1.4378298161220050e-04 6.8748932116346714e-05 -4.0428073007072192e-07  -1.4668796649700594e-04 6.3332641563129224e-05 1.8658978648958251e-06  -1.2695327401905375e-04 6.7210321027114263e-05 -2.5359130874330645e-06  -1.2141468329946782e-04 8.8316513035921403e-05 -1.0473098738253316e-05  -1.4970665883382150e-04 3.4573364129097123e-05 1.1968968804192558e-05  -1.3648399036192879e-04 5.0364450819297611e-05 4.6027839014021265e-06  -1.2620996507993666e-04 2.6797788491274027e-05 1.0876921060913373e-05  -1.4048946286497282e-04 -8.3149725448754216e-06 2.4878022338921421e-05  -1.0451263091790572e-04 7.1760105368427231e-05 -7.5882930219586217e-06  -2.2297223441352152e-05 -6.4573778121094827e-05 2.5125287117627946e-05  -9.2757870003353993e-05 -9.2353534968604858e-05 4.5506765972530989e-05  -1.1096787084273319e-04 -1.4295322432801202e-05 2.2237437032948853e-05  -1.1891319472066779e-04 -4.8759329042338649e-05 3.5025189828971963e-05  -1.5462002699723551e-04 2.1292295194788303e-05 1.7188051275113308e-05  -5.5807496176190523e-05 1.0201733754048746e-04 -2.5377799660651360e-05  -1.1331517829109769e-04 3.0485762456830179e-05 7.6143079075510806e-06  2.6899367525867254e-05 8.8371698517802693e-05 -3.3816366397969381e-05  -1.4415261520559481e-04 -3.9395970849559590e-05 3.5859735141898911e-05  -9.0683290879194320e-05 2.0526082596206658e-05 7.3894823216465037e-06  -7.8189297953929602e-05 5.1996916031647069e-05 -5.1115366091614938e-06  -8.3546999183097903e-05 -5.3247209556490860e-05 3.0965781192286029e-05  -8.6787401992128815e-05 -8.5306727852144508e-05 4.2208608955552108e-05  -8.5656575712720072e-05 1.0537874183114825e-04 -2.1808913548730508e-05  -3.3306527067059698e-05 -1.3476477052382936e-04 5.0355955524974670e-05  -8.0037643513000909e-05 6.1832038703995634e-06 1.0517140849623805e-05  -1.1452017391593873e-04 -1.3322000148607054e-05 2.2470235312147982e-05  -4.6727207146959886e-05 -8.6103636729945894e-05 3.6175290529245767e-05  -4.6368914257609466e-05 -1.1353315927254569e-04 4.5302086432004153e-05  -4.0488578224568882e-05 -5.0796361360651240e-05 2.3373624859119716e-05  7.4468004331448306e-05 1.1786561079836402e-04 -5.1171588047313082e-05  -1.0393213583260785e-04 -9.6349077234646015e-05 4.8601770217494910e-05  -1.2828438141253425e-04 -6.3866369576726916e-05 4.1556654553194469e-05  2.0543779581508492e-05 1.1762606736032396e-04 -4.2610931484608461e-05  -1.8234245259193720e-05 1.0642337297355858e-04 -3.2761902055620358e-05  -1.0761240592965627e-05 7.7603051200366547e-05 -2.4288383718363025e-05  -4.8516593758705330e-05 3.0398116811553285e-05 -2.5469784619028787e-06  -7.0737595728313221e-05 -7.8623984905438533e-05 3.7447197601272939e-05  3.5421747027810174e-05 9.6959118926329509e-05 -3.8031635600244700e-05  -8.2552684155421651e-05 -1.0679618865733904e-04 4.8737097932966218e-05  -1.2461905241155835e-05 7.8782931434743806e-05 -2.4415939276510359e-05  -2.4465381041233461e-05 3.9300786787676792e-05 -9.3099513250330861e-06  -2.5717260121265522e-05 1.3006292635323860e-04 -3.9499374141198663e-05  -3.6164341644094764e-05 -2.7487686048018189e-05 1.4890045646211403e-05  -3.5178855752007295e-06 -1.1093917123768074e-04 3.7694624044113316e-05  -7.4284215933468801e-05 -3.8003703606969680e-05 2.4405677345959172e-05  -1.1146292548178077e-04 -5.5340459083951534e-05 3.6056813797764597e-05  -1.3975029493825181e-04 -2.3759244947273067e-05 2.9932371699366592e-05  -1.5115593174426902e-04 -2.8808154810603894e-05 3.3416420239694327e-05  -1.5778966615156688e-04 3.6292486650267308e-06 2.3599948476956720e-05  -6.1628213613686351e-05 7.0016652546276713e-05 -1.3748872365403671e-05  -9.4054147256753033e-05 7.6686576967493548e-05 -1.0882395188636201e-05  -5.5307976259083020e-06 -1.2966825303979991e-04 4.4281505602216309e-05  -8.3813181059845416e-06 1.0996675725037673e-04 -3.5497726149894049e-05  5.6103403361787461e-05 1.1899510827055342e-04 -4.8661601442389877e-05  1.3759385491350932e-04 -4.6542392403880056e-05 -6.0569169260307915e-06  1.3460875114784953e-05 -3.3372415794340566e-05 9.0558262927733485e-06  3.2762710971426923e-05 -1.3757949347661149e-04 4.0907837811462235e-05  -5.5804580975386997e-05 8.7344757611657636e-05 -2.0466017908296147e-05  1.5075937407721887e-04 2.9472615615989197e-05 -3.3576510267417009e-05  9.5429225652738584e-05 9.5478395007546511e-05 -4.6973053434426445e-05  1.1510274721534194e-04 8.7073039223285940e-05 -4.7253000885355289e-05  -1.1621374202607540e-04 -7.6152003787696080e-05 4.3771464056064305e-05  -5.9786360628532807e-05 1.3452720091819724e-04 -3.5636051706584234e-05  -9.4965706740655903e-05 1.1719169507136048e-04 -2.4299765975221797e-05  -1.3953695228234647e-06 -8.0223686444619795e-05 2.7077571754160440e-05  -3.3106127047223576e-05 -6.7904721822291585e-06 7.4798613974681947e-06  -7.4246286534177753e-05 -1.5202810794855264e-05 1.6766190269086008e-05  2.9866873563073815e-05 1.3566761640690166e-04 -5.0117278390362014e-05  1.1090168236820175e-05 -1.4117779717482301e-04 4.5520874824569195e-05  9.0645267401854589e-05 -9.7678160627021852e-05 1.8446279448887197e-05  1.4995617264009498e-04 2.7699292226581966e-05 -3.2856501997612504e-05  6.8869214893248535e-05 -4.7833992417788520e-05 5.1835637300686878e-06  -1.3070352563331465e-04 -6.8992221903412562e-05 4.3653190861057092e-05  -2.6407917370016719e-05 -9.7649975592160510e-05 3.6845356805646488e-05  7.6894798690772752e-05 7.0402464112771673e-05 -3.5663030747733529e-05  -1.3895647370441150e-04 1.3808051824776965e-05 1.7230356752767592e-05  4.3482489729913951e-05 -1.0221896117866245e-04 2.7383608673566216e-05  3.2675883709072988e-05 5.9847714322292680e-05 -2.5175258710191022e-05  1.4874600154040697e-05 1.3373881927739869e-04 -4.7113757091186944e-05  -1.0194521112916903e-04 9.6894276783219998e-05 -1.6406743009253304e-05  1.3753819415094899e-04 -7.2310560873691814e-05 2.5787743651500602e-06  -7.7747372671871867e-06 2.9778876930958871e-05 -8.7469811380861291e-06  1.2243558562037194e-04 -7.5504075124833452e-05 6.0230629173609657e-06  -1.5605924816536465e-04 4.1119223063826210e-05 1.0776525282386062e-05  -7.5997623192694427e-05 -1.1690061320395353e-04 5.1089073426766022e-05  -4.2817419879450470e-05 -1.2811439628737309e-04 4.9625215765491025e-05  1.3947062242290056e-04 5.5602852069157771e-05 -4.0549325468699749e-05  -4.2296123948168728e-05 6.5166502165713572e-05 -1.5165373065016697e-05  4.4210534629415403e-05 6.7800994887742293e-05 -2.9651952503027940e-05  -5.1211106895549380e-05 2.0090484866014752e-05 1.3276746126078360e-06  -6.5688024789909449e-05 1.2380039453859402e-04 -3.1116686457625469e-05  1.3761538188052550e-04 -7.1819706453622907e-05 2.4023019501653509e-06  -3.2849437443879148e-06 -1.3870414096307961e-04 4.6953437962153911e-05  -1.0173319187301854e-04 4.7189825691590511e-05 2.0049102688006957e-07  -6.8641522836592457e-05 4.1280685150442970e-05 -3.0253870549543797e-06  -5.2302388450459849e-05 1.1177678704340639e-04 -2.9196405624466202e-05  -1.0644936785482143e-04 -9.4242036601325835e-05 4.8292228650605005e-05  4.5038734963351134e-10 1.2651068966873567e-09 -4.9437647896854562e-10  -4.8291862159579693e-05 -5.3327626066851620e-05 2.5448261278952390e-05  7.6095639630637622e-05 1.8040343095546721e-05 -1.8007009891801637e-05  -3.4552372486771696e-05 5.8179703146088487e-05 -1.4044089824152908e-05  5.8973738060527489e-05 -4.5639722896783065e-05 6.0051675292270522e-06  -3.6290238320949075e-05 1.1204995925585661e-05 1.9559030085361952e-06  -7.9967440458532604e-05 1.4777282310729797e-05 7.6288845527928184e-06  1.2463701811479996e-05 6.6771127668161485e-05 -2.4314457943273320e-05  5.6408321388091744e-05 -3.2831271848614465e-05 2.1204733508064973e-06  -4.2991548852677278e-05 -7.4750439700065192e-06 9.2636925710117562e-06  3.6258731930985632e-05 4.4616721749933671e-05 -2.0639528296512981e-05  -1.0550920577105765e-05 -5.2535391669601189e-05 1.9247653022046984e-05  1.7350534595837689e-05 -8.1559968085973483e-05 2.4576848412527528e-05  3.2547928041192022e-05 2.3765772189457095e-05 -1.3075244539466199e-05  -1.0678591919571504e-05 -6.5329656253238584e-05 2.3551129514504473e-05  2.6492936566368875e-05 -1.3020916019081379e-05 1.9283450949154930e-07  -5.6504176833492375e-05 6.5648923153379253e-05 -1.3092436066980452e-05  -7.6984860817878737e-05 -2.3568988887930139e-05 1.9997792388791089e-05  7.9511386510044312e-05 -2.8351129229710193e-06 -1.1555287399955880e-05  -1.4786853740958819e-05 3.4573253160930115e-05 -9.2493235587382813e-06  1.1638922601330354e-05 8.4671253190027703e-05 -3.0177539807404830e-05  6.7041632922216709e-05 5.0273403324828110e-05 -2.7374442371279350e-05  6.4716673655054654e-05 6.8409906426759702e-05 -3.3080733534623195e-05  -8.1689899761013752e-05 3.3727475823607475e-05 1.5554246786829738e-06  9.8355450824739101e-05 -3.1162118408103496e-05 -5.0352103811755111e-06  -2.0513969520710227e-05 6.1682774267378100e-05 -1.7424651472067306e-05  -9.2324676917707847e-05 -2.7153454744959139e-05 2.3610272561338173e-05  9.1958613730256926e-05 3.3132929922739394e-06 -1.5571243762434107e-05  7.1311653361027101e-05 -7.3287353516932597e-05 1.3320993851759614e-05  -8.6802139330434289e-05 3.2793088379998079e-05 2.6722313678640685e-06  2.3650028380095219e-05 -2.4256252759862180e-05 4.4014118568425857e-06  -2.6029988290412507e-05 -8.6104591766449523e-05 3.2920636621709135e-05  -2.5975996726461323e-05 -9.3282245742210549e-05 3.5315155859054405e-05  3.9111849912755624e-05 -8.6570980777894873e-05 2.2832167717376575e-05  -8.2645294104361395e-05 7.3145547847212791e-05 -1.1491119675478822e-05  3.5611642348110969e-05 -7.9431134911268360e-05 2.0992279684179369e-05  -2.6293117484878807e-05 9.6378260625813904e-05 -2.8131505498972137e-05  -4.8835190132152124e-05 -2.9130300446495110e-05 1.7432673936125265e-05  8.7397041381522765e-05 3.9799026367423127e-05 -2.7068938994717450e-05  8.9794979840531755e-06 4.1484424463105822e-05 -1.5300762590961820e-05  3.3520127606951777e-05 2.2680989099799074e-05 -1.2864963641499437e-05  </DataArray> 
</PointData> 
</Piece>
</UnstructuredGrid>
</VTKFile>