<?xml version="1.0"?>
<VTKFile type="UnstructuredGrid"  version="0.1"  >
<UnstructuredGrid>
<Piece  NumberOfPoints="201" NumberOfCells="657">
<Points>
<DataArray  type="Float64"  NumberOfComponents="3"  format="ascii">-0.03859492431068117 -0.02345796709268668 2574.330367652597  -0.05385298074977424 0.3643434121838472 -2574.328506230656  136.8930919465977 0.4947026306404217 -2447.35345754937  259.4102551479277 0.6189807992080616 -2079.640457462627  355.2486952912437 0.03587720315871189 -1508.980153758542  415.7535950606732 -0.1265432804983464 -792.4671962864473  436.6229067769615 -0.2630491522731024 -0.03930154900249765  415.7106465552832 -0.04443117402548954 792.4979205662886  355.1576125494288 0.2618233553589976 1508.707162327399  259.4615362800996 0.1563311884954063 2079.465562596828  136.9369225972879 0.05166820979450103 2447.30683505142  173.8324166823941 -871.6218492914293 -2239.244460048308  172.4322307588883 677.2296571767408 2293.687574225884  417.28027796742 -793.0799926192692 -380.5311393597141  302.7962256493698 -854.1920653861284 1715.061885832772  380.4762003814695 798.1968437685696 1079.925485834158  378.9406869733714 798.2111424037838 -1098.925483891871  193.9351425154462 781.2087967008998 -2209.124073353619  66.97926540078039 -777.1851848896973 2450.197951483507  300.5604199168716 -787.2740555479276 -1750.864956718074  211.5138310660646 -1536.460786781925 -1816.19565257812  312.8193530134562 -1517.29147814293 -1249.249237852681  217.3160102350162 -2157.401678569107 -1205.686277564189  304.533239268796 -2036.904530139293 -592.7856090138279  193.6174356576383 -2569.427111096151 -505.9424098966467  273.7396175109285 -2315.281882711465 127.6255003419517  145.483299174673 -2741.447459706465 231.2239860660747  209.4044942256606 -2384.951760530333 874.6478947265559  75.97668497439479 -2662.095455947259 932.7252846524457  133.8216972016647 -2170.295039724718 1535.204042436907  -5.258809544737525 -2327.309077783593 1540.288182786426  316.8219388376406 -1885.520628548793 734.7940131965822  300.5707714156536 787.2120433907832 1750.956833334887  306.7188585543016 1526.333893393953 1292.375897148036  369.791065615378 1471.828426109375 584.1026301600932  49.79751864971904 -1727.100667526691 2052.269197047445  181.2166101193949 -1519.459138945049 1932.122318024381  211.379538306689 1448.391036116814 1871.760999974743  205.4729399651834 2122.087135587894 1315.846891380401  418.0012150183283 -773.4739430894019 380.3997706867378  372.3365244425717 -1591.819559310467 44.13869920543092  381.2395408307066 -799.0222400348596 -1069.491994094958  66.94293254658413 777.5697772110691 -2450.489608189464  297.723883438915 767.2072522902957 -1774.985708814551  304.3606909090983 1517.623412679532 -1318.387098152778  94.15356493654765 -2582.87444889095 -1049.863313341903  -66.08206740026033 -2693.685021854942 883.2658704988451  90.52505084990909 -1567.836326584108 -2105.644486343858  367.2508121544962 1489.157239503329 -603.7869454478257  278.6051535238905 2136.459563705988 -730.390058781146  198.1356236780398 2067.856712729173 -1415.429852253044  157.9732160954614 2575.628138738978 -790.7103125346  69.5826806285168 2410.397555016358 -1381.258880158613  20.63975016623785 2782.266914329143 -719.0518946501078  -71.52609653664638 2480.905709040673 -1275.657466008719  -118.4532518881758 2736.56329497669 -542.0310090527435  -206.8907787835012 2341.972402098979 -976.1839040562651  -22.86059171883984 2895.671928035089 47.98359497148631  -144.3086077505041 -2242.703861942607 1418.910808112388  -199.9708631536604 -2489.180411612032 703.4488507366135  -243.1008503512342 2440.594473434134 -263.9826574951435  -317.3436697254048 1916.814769722937 -666.7335783954284  -337.6599468223536 1916.283174272054 59.59489684898971  -391.3205330228547 1269.72581719162 -414.8826265891661  -396.3165824709221 1205.74059170005 386.9936234027911  -348.5351274906708 1197.876249318283 -1182.203659692421  -324.2045668442278 1770.155811377577 836.0533187132332  -411.1287836442669 527.2757406029173 -751.7757967369288  -366.3181130748093 987.9631107625549 1136.887637806137  -351.355937122996 336.384193166088 -1513.748931683824  -393.4562770374636 -381.8622117341152 -1079.859855454939  -275.3139607237104 1477.035604674875 1548.470571066693  -61.61136859364561 -1194.452806855448 2320.502365274356  -269.6141505354656 -1929.966481921591 1153.777307875142  -316.4320637395097 -513.2527710217777 -1729.331284257247  -343.1302007365643 -1209.022478262688 -1227.074135318771  -420.0983647258849 334.8701873360356 648.4167239691054  -150.1968703489008 1931.589036112274 -1723.411633823677  -301.8318829400727 631.2981827421847 1790.499579322439  96.72866149143786 1948.484044212548 1829.731910172828  -406.6898858837515 -997.5165844354636 -435.4352432140321  -257.0664714414402 204.3295816119787 -2082.645980473122  -201.4693622302488 1118.160110488269 2070.432100917822  -248.700930463349 -1290.105285059024 -1804.677879201813  -262.2038555899803 -1926.217342558656 -1213.614621520779  -222.1022704509969 2164.892523820626 1166.232502903769  -115.0315703237438 -2803.603906105991 167.4939120081411  -211.3260223035742 188.1388163734846 2253.502234625881  -310.675274107777 -273.5094886289319 1803.962798396053  -151.8516061654198 -1919.206888930411 -1729.204484870641  -153.7670205731956 -2452.020666693631 -1074.855641170147  -129.8611457764485 -1211.747823259559 -2217.337712920493  229.5498176877293 2510.699055047655 -73.30461588709215  -305.2970422882496 -2077.311351145866 458.5069095582177  -363.2326413637575 -1408.156056071027 798.6084405840592  81.2421623236139 2513.6354734237 1205.285425393179  -29.24314900882863 2262.900756108138 1606.349969763727  -10.00179281354195 1701.739885181789 2087.629773745014  -120.2117854985335 719.3871903026144 2394.647151238659  -201.5313728233627 -1569.85591250386 1831.152654198424  105.9705690802103 1905.242587856148 -1848.85611918051  -252.5964400625073 -2331.114550912547 -565.8349857683057  -33.14536970410387 1457.333335909491 -2220.350122004726  -72.97296688671592 624.4269486249655 -2478.650178444221  -50.75811500506677 2706.94778459849 883.2055195271489  -93.78428034565083 -442.7660784841203 2484.951948218393  -32.77056619269509 -2370.672691024107 -1476.261057221737  -202.3435313997059 -713.3531972249424 2200.46838926359  -311.4963733534079 -1159.083798779116 1517.011894703441  -384.4092281633539 -561.3018176695451 1136.324723661747  -419.8758795583599 -731.8839429627401 360.153914940671  -434.6720929500299 -95.49789502228717 -222.6924887206626  -171.0937137354207 1242.674397303824 -2107.865151871207  -259.0063498990866 1381.910513332598 -1700.627207175515  -38.80378607361624 -2727.365877442556 -851.5528951025171  -15.31404263285356 2135.193460488778 -1744.671206545933  180.9155410242076 2555.755445653409 678.2993705560096  378.9414312980347 -763.6673454111038 1118.877427108656  22.24109711170462 -815.0236091410554 -2468.03747837454  72.20586219452457 -2829.631740956647 -401.0938752657256  -136.7437218431698 1848.611647935228 1827.799015021651  418.850679851057 743.3005881358082 -388.5005566105189  286.633996066551 2118.511150594085 665.5069184882997  336.3109107848304 1927.734859467415 -29.45673633895686  -339.6800288501997 -1742.914974089709 -652.2263862352346  -150.9586570176365 2732.279156012841 202.5002500677503  -250.875799858144 2365.187117758994 474.2001952056587  -24.30347862109307 -1764.523464597814 -2042.017190120307  -103.4029674418753 -321.6941325913866 -2486.667488372201  -217.4217370226204 -518.7272385072412 -2192.932615437413  105.4937806743055 2820.452597710466 -133.2006204626881  12.43363291608592 -2880.888633707078 289.4820372147607  246.9293056374079 -1839.286462340146 1405.698423807844  419.5438674201522 752.9052075985998 344.8168352172656  194.0799315947899 -775.0280122683261 2210.170618394625  -374.4586704938848 -1568.765061700812 63.56572146731193  -80.40837262475837 -1907.00878420748 1888.868935449462  217.1167488298192 1404.046313223432 -1875.23103298714  -375.7325370775864 234.4664645228222 1307.401305556246  101.2830613493045 -2154.675476522279 -1629.347984080874  109.4797409352269 1386.889831446261 2174.184803932283  65.03499077407075 2804.705338831695 547.1974899075103  -277.9817815710362 1828.71738309761 -1212.468030470249  369.7642419114624 -1417.110770537099 -672.865639178229  -6.805073552202447 749.7881136161213 2487.275639481818  335.572131329102 -1374.21821430363 1169.351965828819  -425.2252318940438 704.7541001948695 -58.37131730051496  -233.9293289819649 -2495.693284770262 25.00960685636669  -143.802572110475 -2714.265301303715 -431.0950625525588  395.5939907039094 1302.180126791934 -17.91503812630547  -99.74682401080129 1422.671701408367 2171.613221304606  123.9621855040582 1292.013869024956 -2193.532338471336  -149.5039328444292 212.7346432798062 -2415.300038978879  -165.8509234939965 2541.570505529921 825.2671872129936  375.611097688983 -1318.750311629543 707.4756969867003  -31.12884876668522 -2878.807934245489 -261.5787451421934  -283.5315457768357 757.0130384273969 -1856.939872904168  -194.3289415566631 639.3777811219124 -2242.675052772442  -126.4148382471637 2331.577518279473 1359.750700053864  -314.8265188506984 -2076.17372852259 -144.7562485625784  -0.05990186502263928 -0.007098089359984246 -0.08994956388399437  -140.2759116386587 -1155.744891647108 71.23253875762278  210.6165005813382 452.062127797057 -11.87890760246609  -84.60744609530107 1212.673282008308 566.4355406675627  157.6845423349428 -861.4547656670896 514.5517616409136  -102.5274448412541 125.4924035690504 -1142.410233971583  -216.3519899483205 230.2876893480358 0.8857992566552272  41.80573887419236 1370.693304612608 -492.3054919273945  146.804637756621 -676.9928284056209 -769.1440842925805  -113.9745168522739 -128.3900948679074 1108.002668223691  109.8662839982125 1019.643118759253 894.9733767890591  -40.65766741140104 -1161.997633139988 -972.9384104084977  36.60708243429859 -1679.192278770619 4.723703805628038  87.26627665342374 445.5
[...]
<PointData  Scalars="Pressure"> 
<DataArray  type="Float64"  Name="Pressure"  format="ascii">-1.0580221386794791e-02  -1.0035145376993954e-02  -1.1540005414974625e-02  -1.2590186420991722e-02  -1.6359975342284210e-02  -1.7964297752000959e-02  -1.8124760152506102e-02  -1.7190643471294672e-02  -1.6686702630737623e-02  -1.3358860816669402e-02  -1.1866577695093996e-02  -1.0779577338929383e-02  -1.0211404433734306e-02  -1.6868125261657832e-02  -1.2482705348546097e-02  -1.5221097736289834e-02  -1.5369809585461211e-02  -1.0909888810465021e-02  -9.4746510027160433e-03  -1.3208689188888860e-02  -7.4030237928541971e-03  -9.1746637354330595e-03  -3.5694929419600109e-03  -6.4729852549355021e-03  5.9050545615037080e-04  -3.0843079282847742e-03  2.8192586930205141e-03  -9.8843581919459233e-04  2.0242702851235288e-03  -1.8576718804443862e-03  -5.5390425202387199e-05  -7.2888659731177429e-03  -1.3459416024870148e-02  -1.0022195173139565e-02  -1.2244692378538381e-02  -5.4110368933658675e-03  -7.6385786680891188e-03  -8.1334045942584431e-03  -3.3536282989940947e-03  -1.7041436033211423e-02  -1.1104691912780653e-02  -1.5328094474779152e-02  -9.1196042513033895e-03  -1.3316143785162129e-02  -1.0069259927058311e-02  1.0070127626250875e-03  2.4619091753743426e-03  -6.4065484443314776e-03  -1.1181968315092789e-02  -4.8316389216734330e-03  -3.9163882157396248e-03  9.2578357058327703e-04  3.3705812795329520e-04  3.6593274089244507e-03  7.1269434094386542e-04  2.9285854222122071e-03  -1.5692279764817623e-03  4.7270482307792874e-03  -1.7152741078430285e-03  1.0129738946970584e-04  -1.4824368586531459e-03  -7.0814348094679702e-03  -8.0751718876864251e-03  -1.3174243883489428e-02  -1.3464913124535573e-02  -1.3023478035195038e-02  -8.6851714000429937e-03  -1.7452970144126286e-02  -1.4595055150330173e-02  -1.5827574752087913e-02  -1.6644124248663711e-02  -9.3109559262817016e-03  -7.9650438904919924e-03  -6.2361376656750516e-03  -1.4544465334433900e-02  -1.2526272427776469e-02  -1.7603188904035772e-02  -4.3241431656749910e-03  -1.4019707869040714e-02  -3.5426783205073360e-03  -1.5715859232644756e-02  -1.3300814799659732e-02  -9.9459309580204637e-03  -9.7292158103846893e-03  -6.1252654348777167e-03  -4.0129944237740798e-03  3.1010497501582713e-03  -1.2019207426804989e-02  -1.4598502302772034e-02  -4.5719493421485236e-03  -2.4780701177848965e-04  -9.1243295608538274e-03  -5.8091865822830090e-04  -6.2025973128454160e-03  -1.2148274822439310e-02  4.4396058995920001e-04  -7.5348449710358487e-04  -5.4760598321291808e-03  -1.1240714454057344e-02  -7.3505420472941389e-03  -3.7629985666804830e-03  -2.9541501286399845e-03  -6.6188419094429388e-03  -9.5355354464673470e-03  3.3015837102516863e-03  -1.0064829202778215e-02  -6.0578244557480320e-04  -1.1382809882457772e-02  -1.1950858518860906e-02  -1.6813018269408533e-02  -1.7397428121794935e-02  -1.7632987008901146e-02  -8.4160767036220233e-03  -9.4629967722127672e-03  3.1595795575587479e-03  -2.6756582442710830e-03  6.3432301741477883e-04  -1.5012955146074159e-02  -9.9233889052444610e-03  3.9972759903623700e-03  -4.1224199012629961e-03  -1.6669275868630529e-02  -5.5518437325447053e-03  -7.6025246865217208e-03  -9.2463392223006806e-03  2.4873603325397068e-03  -2.2701012440712355e-03  -4.3332569666548262e-03  -1.0807275963576538e-02  -1.2576353172733428e-02  4.1191419295552503e-03  4.8600140594084133e-03  -6.7062612420105945e-03  -1.6677810087935604e-02  -1.0782092649120577e-02  -1.1324318075016672e-02  -3.9205164613888323e-03  -8.5502355779288990e-03  -1.6214172422705325e-02  -2.6911163934276961e-03  -6.8496802729400407e-03  3.4644896024293814e-03  -7.3072293037805087e-03  -1.2369129355395150e-02  -1.0204928803760439e-02  -1.1406683293258370e-02  -1.6509792718881651e-02  -2.9157290853403179e-04  2.4445324680854655e-03  -1.2531709452674981e-02  -6.8903192215416641e-03  -7.6785478186584821e-03  -1.1625340823757359e-02  9.6024816774396187e-04  -1.2707529330108429e-02  4.5786556066518876e-03  -1.2850166181113261e-02  -1.0865245928640910e-02  -1.8536006906074692e-03  -5.2674509305714991e-03  1.7528769914874353e-02  1.2167679953617118e-02  8.3894346394021782e-03  1.2913714812520960e-02  1.1072743749015734e-02  9.7475859044476917e-03  7.8428074650522400e-03  1.3822942432418576e-02  9.8505167511217535e-03  9.6533930224035596e-03  1.0111562758067074e-02  1.1177124760785702e-02  1.3841802850084578e-02  8.0636686840187752e-03  1.1080363869978422e-02  8.3823587393004467e-03  1.0543936127995705e-02  5.9911973737053169e-03  4.6291329560574097e-03  7.4261705520975918e-03  1.2523344160520530e-02  6.5603622024687815e-03  8.4755606423595978e-03  5.0100894409917706e-03  3.9017122953667691e-03  8.0059854342185398e-03  3.5868401143489262e-03  2.6754399064471408e-03  8.0241577770577242e-03  3.4636664964712584e-03  6.3171827627228234e-03  1.1007720694040071e-02  1.0824005552213984e-02  9.3139907549339949e-03  5.4259714993409990e-03  9.7926285625683975e-03  1.2038401500215980e-02  3.7568848642604252e-03  2.8045681126475132e-03  1.6711784065415250e-02  1.4448602914132224e-02  </DataArray> 
</PointData> 
</Piece>
</UnstructuredGrid>
</VTKFile>