<?xml version="1.0"?>
<VTKFile type="UnstructuredGrid"  version="0.1"  >
<UnstructuredGrid>
<Piece  NumberOfPoints="201" NumberOfCells="657">
<Points>
<DataArray  type="Float64"  NumberOfComponents="3"  format="ascii">-0.4107306737753085 1.514861624023323 419.1159056230915  0.01500879931545117 -1.603947360239881 -419.3375199037602  898.4164601464832 0.6815924740993488 -405.3146615706978  1700.014072987394 2.581864759918788 -353.8815891126637  2324.72698661354 3.751591759371808 -266.1676491544978  2719.502055453133 4.211410309640262 -145.7340745411825  2854.446296589396 4.274374992864941 -7.499547073455554  2719.539462617862 4.30481930865289 130.7012022276319  2324.667148692281 4.408574841381892 251.7788436260412  1699.805471055735 4.260488544009772 341.8440283353492  898.2478973586024 3.432215327136781 398.1870653888682  1132.610911470051 -813.8367943749071 -411.7091495895577  1129.374710554424 637.0350762618499 403.7402431034612  2716.44444784933 -717.0498237511728 -97.02571856310082  1971.462338203912 -785.3658328873869 253.9266677224988  2480.478372896308 734.824135410202 205.5681452454429  2470.597180414635 734.317536329236 -172.2692319110744  1267.678689353033 731.3201293085814 -338.9187301473361  436.1495588371954 -728.3978256852467 364.7199588766384  1959.455000841511 -724.6358041783068 -332.0618330391832  1362.352840043588 -1425.361041835843 -367.6846932238548  2015.72372349275 -1392.633204966812 -270.2377307012947  1378.749188360754 -1991.181294846556 -281.0167320837672  1938.580098329037 -1865.198663098517 -169.204561174777  1213.478587003153 -2366.05923701997 -168.3257009846607  1729.112362003042 -2122.422229149633 -51.15877190429113  905.4755251747092 -2527.080456562577 -45.65359849606104  1318.949052787848 -2197.498950415566 70.71339123325475  472.4124163194371 -2463.536162632628 71.63460121985797  847.0152158688657 -2013.830999290905 179.0386458913785  -36.87352156408174 -2164.669500621835 176.1502844979958  2025.763655045617 -1725.620178016346 63.26140921237751  1962.530317215384 732.0097429921034 319.395873380693  1980.30792631793 1409.290821916741 266.4663808427409  2388.210279665409 1348.656915137419 138.9892688610404  316.8276004184415 -1612.801315578314 269.5985418559854  1168.591657705947 -1411.78204779163 259.8843642837589  1368.367085394389 1349.911343176994 365.078988473504  1311.544024794454 1966.412493767771 291.4771640092903  2721.807866434328 -699.4340127777708 36.72954381554312  2396.515368184829 -1448.696187700547 -45.30044280477951  2483.497661308029 -727.0952466312568 -217.6753249135096  439.4218224626195 730.4295774966761 -367.90651819368  1943.533027454454 712.8665240259231 -278.8506827131939  1965.395101625288 1401.277340016978 -181.0898111624896  588.1281887684478 -2391.337044268575 -264.4409437669669  -418.2299425740279 -2494.484837922402 65.22600004969944  581.6534674568555 -1465.949924171847 -414.8309122034307  2372.139640204085 1364.728597388988 -66.73283576893122  1774.888669843911 1967.277668722662 -65.24452574857679  1266.89051887461 1917.411972058647 -172.8540392999773  996.6704759129889 2381.019625621829 -57.03384582733087  444.1954069123574 2238.836934757472 -151.6376068599851  132.009690042107 2574.562549664392 -35.64893099758313  -447.3554112946674 2300.840188977438 -130.2627093534967  -737.4531120959774 2526.415614123481 -6.455462841305183  -1305.997877460619 2159.833228103928 -87.98742159181744  -138.785950856746 2675.13389881101 96.13727554492274  -919.5187343897873 -2082.301506608925 164.9485306328676  -1262.633252787966 -2298.146630418518 46.58246749500338  -1530.04048918596 2241.706833339798 31.7797855403843  -2025.794113133023 1754.635734572672 -51.02795682431272  -2155.308640750914 1749.67579643447 72.43497910708412  -2532.66433423538 1153.608236450746 -28.264414545224  -2567.286815088564 1094.928691229352 109.5592920285366  -2257.356495192453 1094.996245099033 -158.2500155667586  -2077.148291716034 1620.646993881754 205.1368798565159  -2683.876032424326 476.377580612414 -107.7175416624963  -2379.628801495702 901.088873439132 234.8877452658354  -2296.534994913363 304.9571043443815 -240.7750162932692  -2571.119101799752 -353.7759860709419 -192.3018834260704  -1774.533337868142 1362.396848142666 320.6666653327912  -403.2144631893325 -1120.593797699075 331.4422009716696  -1727.978662158004 -1782.068722569242 139.3174769976632  -2069.473020085831 -478.5413466953334 -305.9523120388905  -2226.095864569282 -1114.590512019691 -244.534605638694  -2744.773080258673 300.9760285616427 131.1221097538206  -958.3521411792412 1794.103219677132 -215.1536243128768  -1969.978405123028 580.9758169561129 333.4104055438944  622.7040916208655 1818.058940810824 378.1141997683364  -2644.213735391767 -912.5978309396698 -98.55307976633188  -1682.612784741272 185.5731207984269 -334.6523883307054  -1308.548642278234 1040.179861539894 394.8916108185774  -1613.293990555836 -1200.847171564309 -347.6709771434755  -1680.444986694907 -1780.297509671784 -266.1097938498942  -1409.281839747167 1997.64397288339 274.4995638750145  -721.9772846083405 -2589.28481885542 -53.94474233500389  -1384.087239459144 173.8850106673179 386.4631381561575  -2034.282543286081 -256.4060083914177 302.5783459717298  -975.7136789478753 -1787.882055013414 -358.4482186607327  -973.5467459027485 -2271.020153998494 -260.4353064811004  -845.924563971793 -1137.314883629527 -414.7774260901052  1448.815860832554 2312.317277979663 58.16160057340112  -1948.815833764222 -1908.655574720433 21.98314121520177  -2348.68289492732 -1292.359883387697 101.9166958504809  516.1312954885541 2331.877511629652 286.7907776271634  -182.4338068750254 2105.94598295314 352.1009614398127  -61.78885243161577 1592.422236052797 415.2223786053092  -785.3821557220413 674.1516647851905 428.3068655876427  -1304.296293342487 -1461.435294608565 252.77620727098  682.5792795480669 1776.79552168577 -238.6797695319262  -1602.683356791847 -2147.291963926089 -164.3560738629048  -211.453913951361 1364.487944676966 -304.1543692993745  -475.8880237967024 584.5830679009814 -375.5960038416527  -314.0763641061964 2505.588835520528 237.6208451633165  -615.5389006543634 -415.8763542506579 388.5574937141113  -211.010709574644 -2204.735757651627 -331.8660128834096  -1323.228402213692 -668.3057254730764 340.7465137238929  -2023.745182674353 -1072.753518413547 224.5286382316637  -2510.277456384718 -517.4977866880386 186.3468009970806  -2737.272374814044 -669.8682411117874 48.97419464960612  -2841.980191650169 -90.85174046145418 -34.40512100407451  -1108.411362089829 1156.922937005705 -296.2846420935307  -1673.796590863808 1276.623262477198 -232.0164528619707  -247.1552191193518 -2525.724125438156 -231.2039770845415  -94.31385307998914 1988.966119809627 -212.4793675827307  1141.40438665934 2360.398682131343 191.8395244973538  2467.526890298329 -694.3781704816336 162.1680152706849  143.3354778090356 -767.9505920844738 -440.6386961814952  446.3646981632368 -2613.447634798018 -156.2196225560839  -873.714045920531 1720.785831962596 379.1251467526058  2730.548993511586 680.5273481794599 -53.66087536181798  1826.959721722588 1949.631358230186 174.306893963512  2152.294695603433 1767.206242853357 45.48738339800261  -2182.937585317836 -1600.438027937619 -159.8418575178059  -940.3173377886509 2518.766309616702 119.625950691345  -1581.811518808151 2172.864766502959 157.3838110162241  -159.7184651975116 -1651.249949003241 -409.2702579046947  -678.2562592365273 -305.1538127567119 -419.0771626132127  -1423.489567072614 -488.0427648922874 -380.9502136155228  661.7838428885268 2605.029112593143 60.64440678556814  72.69179167675418 -2662.026834131807 -38.3078699064193  1580.509815137798 -1696.670901477394 171.1772457523786  2735.104731481229 689.2696245521375 75.1364248737023  1265.003719792461 -720.6482365395609 330.319203174129  -2415.387824807121 -1435.326129312121 -28.30699737745988  -519.3920432863875 -1779.322314088486 243.3441118160372  1407.083415901284 1307.7179319607 -266.0790404930066  -2456.792322115008 210.9214775925187 240.813850323895  641.2282702178511 -2003.693147785235 -354.3920239126994  711.2478662750444 1300.039792686536 414.9800748138231  409.7500918940057 2593.811720714393 178.7062860702792  -1778.458938376561 1682.409958994749 -141.6925064977416  2387.100571895696 -1291.139387298206 -166.0407622814397  -43.23958235953482 705.7802165597542 439.8909976996295  2167.473243164 -1258.097897236219 149.9536925032448  -2769.601201047513 636.460134119652 17.57107673477099  -1476.652212184703 -2298.682969562772 -66.70753055355692  -903.609538947949 -2506.860011250645 -154.1239073731749  2562.051920422285 1190.665936478763 27.67629953076252  -643.2619072958579 1330.673886016011 420.586911448325  806.6911571254094 1209.70049134087 -312.5121010598492  -978.9639306594103 195.6723895567918 -383.8857579077342  -1040.366081893907 2346.099094403865 223.951563026376  2428.29335786518 -1200.610490720449 76.18560468490355  -198.6065678641012 -2660.613948780091 -131.6955308501145  -1847.821874158794 697.55985149131 -278.4515317630991  -1268.500632964258 593.8553740728992 -340.4742499062307  -797.8196357565951 2161.385900280666 312.3145280818122  -2008.381364701356 -1906.025808938492 -81.1306963237334  0.02082484155036517 0.03140015235188962 -0.002897005526763856  -926.8105760600904 -1060.915830002868 -32.36534534284344  1399.286265287964 416.0993893959061 11.5063815803553  -555.3397282669591 1112.410761384705 146.2516555287133  1041.430254216843 -786.8792846460344 45.56075305083228  -681.9485040440679 113.4892116930747 -179.088263807627  -1438.019203587422 207.2229824564744 14.56508786729881  277.6645906016578 1259.303037014533 -25.21203411104006  972.0390411577584 -619.3016162654211 -159.1709512520063  -758.8925212993048 -119.0755420855896 179.2530863438026  727.5460742373793 939.3233973656477 188.0098229731167  -270.0784504546548 -1070.863500927049 -208.579116449784  235.6686595711612 -1541.428607639524 -67.38585508588194  580.0859197965842 411.28404826277 -191.2786340801488  -230.4
[...]
<PointData  Vectors="Self-Gravity"> 
<DataArray  type="Float64"  Name="Self-Gravity"  NumberOfComponents="3" format="ascii">-2.5593731019009988e-06 5.6929548194025440e-06 -1.4067553400957402e-04  -8.2564623761811170e-07 -6.6204729229914472e-06 1.3951980184291295e-04  -4.5812332765709064e-06 -5.3727541922195868e-06 1.3091829144328359e-04  -1.1074673564658406e-05 -4.0268631923690343e-06 1.1782436725426430e-04  -1.2643183772390147e-05 -2.3537632674235263e-06 6.0838148902659967e-05  -1.9095387094014539e-05 -9.3777416617318572e-08 4.2896854337764755e-05  -2.2730123935892068e-05 -8.1391264938632854e-07 8.4709620737898919e-06  -2.1329619720325138e-05 1.5202857474562331e-07 -3.6664277828544736e-05  -1.3884369446816574e-05 3.1111364219834853e-06 -6.9193017065937029e-05  -1.2038225712133197e-05 5.3741433047201918e-06 -1.1695094266748755e-04  -6.1014671870600881e-06 7.3099031298950139e-06 -1.2648019285220255e-04  -5.3081121869628774e-06 1.3323773335179524e-06 9.1912676377740610e-05  -7.9374464807399888e-06 -7.8100153918794112e-08 -1.2374675415783827e-04  -2.5420290829745151e-05 7.2053466254224351e-06 1.9889465714505787e-05  -1.2296087076326957e-05 9.8088453071364555e-06 -9.6801736857054442e-05  -1.6510411513215586e-05 -3.4740349552172787e-06 -6.1644705415795324e-05  -1.5688457799925826e-05 -8.4392488202335194e-06 6.4513001518502118e-05  -6.5690991521306817e-06 -9.7411914590921365e-06 1.1248102006659683e-04  -2.6862688762731327e-06 9.2174185544990178e-06 -1.0813113823727597e-04  -1.3995716377571924e-05 3.2001551336426101e-06 1.0265424362935043e-04  -9.7004804617404888e-06 8.6125430279210455e-06 1.0103963240746801e-04  -1.6312326264674185e-05 1.2071656635439902e-05 7.2145536955785751e-05  -9.7842331685698383e-06 1.5052411278047347e-05 5.4695664616260678e-05  -1.6396182281369750e-05 1.7773054716693339e-05 2.7729733530585914e-05  -8.5978854657284945e-06 1.9512317862169408e-05 2.7257622510135569e-05  -1.4731402054024210e-05 2.2373497852516134e-05 -1.4851010140425633e-05  -8.3865072580536824e-06 2.3803394074544907e-05 -1.5163683800235290e-05  -6.3941893355559362e-06 1.4592768093610996e-05 -3.4588158423521238e-05  -2.8690078683210011e-06 2.0898915184169152e-05 -5.0058401142422943e-05  -5.3460272413285558e-06 1.7305211399876880e-05 -6.8976111379399774e-05  3.9600321699632766e-07 2.0690762092502745e-05 -7.8565862759798422e-05  -1.5202296956737752e-05 1.8568176535463530e-05 -4.3119794510758072e-05  -1.6216990264010175e-05 -3.2189108950761949e-06 -1.0458464164487646e-04  -1.4636852478727435e-05 -1.0387847005633919e-05 -6.6084618567110957e-05  -1.6882563527559325e-05 -9.0269212783724914e-06 -3.8754160624743699e-05  -1.9161063702180883e-06 1.6780790258009031e-05 -1.1455753311626613e-04  -7.7159872091720807e-06 1.5619624606395218e-05 -1.0934257131922378e-04  -1.1825643280707068e-05 -8.5854153066125474e-06 -1.0333018976079016e-04  -1.1842425785940193e-05 -1.6243889074144042e-05 -6.6408752350754184e-05  -2.6083004214780710e-05 7.2614895025027557e-06 -2.6921129930694698e-05  -2.1273480373400842e-05 1.5530442807144334e-05 -6.0047242365514596e-06  -1.9422441142163019e-05 3.4233981080264270e-06 6.9379758302477249e-05  -1.2646398773494801e-06 -1.2486759477556905e-05 1.4136975293492287e-04  -1.3779375766035397e-05 -1.0233166352130406e-05 1.0305384030769881e-04  -1.3278439123989543e-05 -1.4307946918169507e-05 6.7823399241280543e-05  -4.3000909093577161e-06 1.5432063461738655e-05 5.2455110826808070e-05  2.0192935415427894e-06 2.5334163771186464e-05 -5.5823070694232454e-05  -3.7168394217334216e-06 7.0559518709893522e-06 1.0641524862308318e-04  -1.7848545741532476e-05 -1.2916049252744237e-05 3.8037664656580718e-05  -1.4455966255543191e-05 -1.8430329139256209e-05 4.0505503088074325e-05  -8.5679023555024641e-06 -1.9481623243664731e-05 7.3891297163514500e-05  -9.1764222859867944e-06 -2.1945461779892168e-05 4.4137312518108629e-05  -2.0433794337958633e-06 -2.2326695025802044e-05 8.2685179179828539e-05  -8.0812247108474112e-07 -2.3733011811728432e-05 4.3617918302187952e-05  3.7428053783874962e-06 -2.1939126332679741e-05 6.5130462179444396e-05  5.7337767690625669e-06 -2.3561930834718753e-05 2.5570132237794920e-05  8.5281338808760343e-06 -2.0803102359853199e-05 5.3943235786743661e-05  1.3366798686122637e-06 -2.3903448844546750e-05 -5.7951012382415724e-06  6.2086011263402466e-06 1.9656992396871460e-05 -7.2351915342755259e-05  6.5261056880391003e-06 1.7698346105875824e-05 -3.2955439509031415e-05  1.2423941558588168e-05 -2.1536475095161036e-05 1.5359151884789386e-05  1.5908506789608323e-05 -1.7134572957358897e-05 3.8967554584027472e-05  1.4558786718123257e-05 -1.3295807771720430e-05 -7.7488129577518956e-06  2.1486078803823395e-05 -1.3426248044760706e-05 2.2849251217652716e-05  2.0054106271723549e-05 -9.1379764339778106e-06 -2.5541901338310248e-05  1.2772229687878935e-05 -8.2678316322809526e-06 5.2098338175522506e-05  1.7724562830679820e-05 -1.2031853654749850e-05 -4.9361371944829500e-05  1.9002568045705047e-05 -4.8602004582893450e-06 4.2015283009199975e-05  1.4206767496894322e-05 -3.9168390712422890e-06 -5.2523736690239266e-05  1.6719256130479890e-05 -4.0706672248696864e-06 7.1783696739458080e-05  1.9408748461249620e-05 4.3354605926360926e-07 5.4851735295711648e-05  1.4961995268788685e-05 -1.0896009258832371e-05 -9.3206118672822290e-05  3.2041734148555144e-06 1.4110523710937905e-05 -1.2298578577943345e-04  1.1415386778101798e-05 1.7748833263127596e-05 -6.2537387307002958e-05  1.7289611754322580e-05 5.7617454460724932e-07 1.0245721675073756e-04  1.7238198433534832e-05 6.4379976113619210e-06 7.5547076823691858e-05  2.3733744097628912e-05 -5.4733240418735140e-08 -3.7360231736137185e-05  6.0601245708925497e-06 -1.4578534939861569e-05 7.4029095585081400e-05  1.2942316744753302e-05 -2.1911736004938196e-06 -8.0731945201528344e-05  -5.3078326960398997e-06 -1.1130149687958758e-05 -9.9982883750991271e-05  2.3306779012265055e-05 8.1727203142214003e-06 2.3288030078672840e-05  1.2744940581884189e-05 -5.7249671857269746e-06 1.1538186076044630e-04  9.3420532852960428e-06 -2.9023961058540736e-06 -1.1415905881359745e-04  7.8367021212921275e-06 3.9884385049895036e-06 7.6909594629698825e-05  1.1899059252295777e-05 1.1716862987319566e-05 7.4753350697934838e-05  1.3608363535448647e-05 -1.6881691697498350e-05 -6.7788095722575722e-05  5.8299061663876840e-06 2.1406903463486435e-05 -1.2109174110790718e-05  9.9747790387498928e-06 3.8407000548585051e-06 -1.2625835656607148e-04  1.5070408699219990e-05 5.7342292423409368e-06 -1.0054240656164310e-04  6.7384231714755319e-06 1.1861170764933791e-05 9.3278339838866138e-05  7.0464960849854737e-06 1.6118248829019977e-05 5.2579205403002000e-05  5.4633779963601663e-06 3.5141244369124667e-06 1.2563217557340128e-04  -1.2185400160265381e-05 -2.0809862706853983e-05 -4.2848739675315152e-06  1.4467861122794560e-05 1.7055476338950965e-05 -3.2282189178195665e-05  1.5328199231872292e-05 1.0431640898117350e-05 -4.2442068190640944e-05  -4.7656853509654951e-06 -1.8417354439048010e-05 -7.3268968655099766e-05  4.9976774778256301e-07 -1.5994625480988638e-05 -9.4027900861771275e-05  -3.2877493373079505e-08 -5.7705590998949880e-06 -9.7155115169192976e-05  4.7012867765189624e-06 2.9602749961557703e-07 -1.2312530971376421e-04  8.2802451436952827e-06 1.4390501918305201e-05 -9.6351571058381110e-05  -4.3300002462602241e-06 -1.7479094495904926e-05 1.0338969859259325e-04  1.3465915030165473e-05 1.7480236817194827e-05 4.2366935039607428e-05  2.2727535305255821e-06 -1.4278118745828992e-05 1.0756020648744642e-04  4.0373761581677979e-06 -1.3082379002257308e-05 1.4471203884857948e-04  2.5232549517890652e-06 -2.3521719843110576e-05 -5.1992360654932303e-05  3.0899929535134665e-06 7.3925186095283021e-06 -1.4199421528342569e-04  2.1068301879858725e-06 1.7162115832108390e-05 8.5733965882734268e-05  8.1499862878918315e-06 8.4211740436732175e-06 -1.0739234217503713e-04  1.4195281255008606e-05 1.1114926554067938e-05 -9.3181791667282837e-05  1.6003048633958757e-05 5.9292900429703095e-06 -5.3272072786045075e-05  1.6656587250245635e-05 6.2106391917344952e-06 -2.1654360407908842e-05  2.2631971635159026e-05 9.5685103405638480e-07 1.6497589855708014e-05  7.5788525078343480e-06 -1.3212290250834397e-05 1.1496349943860178e-04  1.2020979605664485e-05 -1.6024332894650208e-05 9.0700603019133931e-05  1.1475791409767710e-06 2.2681304804566114e-05 6.0078152870744515e-05  1.4871233639472569e-06 -1.5104273038960800e-05 7.6904486099815993e-05  -9.9861067680036625e-06 -2.2037924750387965e-05 -3.8448310746103100e-05  -1.8233764209988493e-05 7.5070571961104487e-06 -5.2255217327476518e-05  3.6001052010881323e-07 -3.6379509711111838e-08 1.2318928401566662e-04  -3.2301952136651922e-06 2.4482088770481834e-05 2.6392664263497466e-05  7.0863226535926276e-06 -9.4485717610525321e-06 -1.0225516995699435e-04  -2.4175331207216948e-05 -7.4402568137203868e-06 2.8206622942440765e-05  -1.6678235799057440e-05 -1.8122238240026621e-05 -4.1314647932389997e-05  -1.7712903709884485e-05 -1.7244032388429561e-05 -1.1021765659247392e-05  1.9446001510219782e-05 1.3807390196325634e-05 3.7280249606732129e-05  9.8622388016783419e-06 -2.6731252599993716e-05 -1.1096969343974113e-05  1.3332912794547232e-05 -1.7713381443151968e-05 -2.5624378267198682e-05  2.0468642336952857e-06 9.2554131533785933e-06 1.1073442847873828e-04  4.3350599993502012e-06 -3.3731904876034907e-06 1.4404999878723840e-04  7.8908264395223608e-06 1.2993226876777157e-07 9.7287435120452031e-05  -5.4393336362378115e-06 -2.5312651432005324e-05 9.2705670226761007e-06  -2.3115922066903826e-06 2.3898797035526067e-05 -1.9038342608936972e-05  -1.2227150408361359e-05 1.6819804162642176e-05 -7.6824860570324238e-05  -2.4788766835601546e-05 -6.3058626802795499e-06 -2.0531633094675988e-05  -7.9710538266973569e-06 9.7648418218024876e-06 -1.1220615442594481e-04  2.0889588953366442e-05 1.3653656434864144e-05 -3.4469524146952660e-06  1.9348802934704081e-06 1.5009582964326792e-05 -8.9380732478105881e-05  -8.8995720523200888e-06 -1.4667883968391566e-05 1.0229786792552950e-04  1.9227885409057769e-05 1.7791615328781388e-06 -7.6354591337206667e-05  -4.5911043016414718e-06 1.3041106040232714e-05 8.0641231484749571e-05  -4.6163301201385807e-06 -4.1861879190808279e-06 -1.1390180491019005e-04  -3.4537643083427997e-06 -2.2890462533410315e-05 -3.2610593590859504e-05  1.3294437011968486e-05 -1.7844363431443198e-05 7.9797506589845101e-05  -2.2191449905865921e-05 1.3315819398855898e-05 3.2908702749013906e-05  -1.6849081836719456e-06 -2.0688075563016061e-08 -1.2994165512948797e-04  -1.5436004644347020e-05 1.2196143842999738e-05 -6.9679891611506084e-05  2.3052983990644881e-05 -6.4261303753000986e-06 5.4742006122111671e-06  1.1671400884484643e-05 2.2035241371087012e-05 -2.4312407039296954e-06  5.6393286576652491e-06 1.5688772013847740e-05 2.3568831725704278e-05  -1.9758485145524251e-05 -1.0988068519921181e-05 -6.8249301982868174e-06  3.6463246984389775e-06 -2.1476780898985125e-06 -1.1160093744699534e-04  -3.6018077768489081e-06 -1.5701807814824880e-05 1.2253929403929328e-04  9.4496527886354828e-06 -5.6479072880309395e-06 1.3652407941767630e-04  9.4452033905226096e-06 -2.0825126053976944e-05 -4.0371795249889700e-05  -2.2340255341982916e-05 1.4304737283855443e-05 -4.1804492179287284e-05  2.0515352623774972e-06 2.2804898868981225e-05 5.6253192200720190e-06  1.5021869641526359e-05 -1.1426943394610043e-05 1.2134060759834367e-04  8.6407364511840597e-06 -9.6710625606339035e-06 1.2827743536036635e-04  7.3831459452124899e-06 -1.8354634482148736e-05 -7.5794491434818566e-05  1.8491133283053725e-05 2.0111991463515611e-05 5.4573789367618031e-06  5.0844311164546121e-07 2.7432718978243728e-06 -4.6488129856094379e-06  9.4744247049404405e-06 1.1369061190116207e-05 -9.1828650586968463e-06  -1.5718606110638412e-05 -3.5941434089890990e-06 -4.3497129749992480e-06  6.8171437605207176e-06 -1.1068561722281048e-05 -5.0905279002315854e-05  -1.0344405297900877e-05 9.9053539016852340e-06 -3.8706739953744767e-05  5.4078937432867590e-06 -5.7971531004304341e-06 8.7051087832681656e-05  1.3931352815303173e-05 -2.5031162482139769e-06 -5.2153080251328203e-06  -2.6611370524398570e-06 -1.6388435841435330e-05 4.9521029714062308e-05  -9.5797169517800379e-06 5.3930351015409407e-06 4.9206592364925377e-05  6.5818342508372588e-06 5.4777619688177404e-06 -8.1669007567569896e-05  -8.3099961528276330e-06 -8.3195839059205269e-06 -8.3308410644999364e-05  3.0823979967567975e-06 7.7352243186055332e-06 5.9416717424927925e-05  -2.2313925732109832e-06 1.3909598132534262e-05 3.5677427371486878e-06  -5.1793323668293719e-06 -9.6501990229684725e-06 1.0941484144867972e-04  2.0967902713617334e-06 1.2749642746470796e-05 -6.9433530561055645e-05  -4.0511295447369920e-06 7.7672274962926479e-06 -1.0537761910816407e-04  8.4439245800798443e-06 -1.2237373588028980e-05 3.2591927162084351e-05  1.4468830583796215e-05 5.7742896801824862e-06 3.9266785306175401e-05  -1.3154122918207739e-05 2.6050035735079273e-06 -6.9621073345183933e-05  1.2281932168505482e-06 -3.6644260311612269e-06 -1.0900573845800044e-04  -3.7901761183069433e-06 -1.9183059545784305e-05 -4.1450952244548605e-05  -1.1574379266432006e-05 -1.4052833176504425e-05 6.6530872641645307e-05  -1.1299317783117325e-05 -1.5953884314828234e-05 -2.9982880867263290e-08  1.4193448805622762e-05 -3.5376872849215499e-06 -7.6095830315591248e-05  -2.0652317334588164e-05 6.6482114065985866e-06 8.0115967616763076e-06  2.7688398499272466e-06 -1.5426547472053370e-05 9.6430998120583224e-05  1.7089643333991191e-05 8.3496582119395027e-06 -4.7042323906701768e-05  -1.5218711715866904e-05 -4.1730393885712490e-06 6.2586141203330238e-05  -1.3943547091735030e-05 1.6787640154658903e-05 1.4015818983313804e-05  1.5325298041956190e-05 -7.7332738631513528e-06 6.6729186924274661e-05  -3.1525772670800615e-06 7.3168511355905997e-07 1.0003060612541366e-04  6.2104404518889274e-06 1.7946052198985610e-05 4.1263199256800900e-05  5.2443482244117922e-06 2.1261656093902994e-05 -4.0797230009756463e-05  -6.1474960074945991e-06 1.8638708740844411e-05 -5.6900500499897339e-05  1.4736888060233728e-05 -1.5673026991352909e-05 -1.3148333405919118e-05  -5.3718174157273829e-06 1.4289021727527873e-05 7.2789542614712003e-05  4.8465388100405475e-06 -2.0910217906864697e-05 1.1654510475883426e-05  9.0444510282321525e-06 2.5595765618127218e-06 1.0454553128967439e-04  -1.7338189198698584e-05 -8.9950693630166116e-06 -5.1408983456746269e-05  -2.5329131595852162e-06 -5.9488093869916279e-06 -4.1153869765107258e-05  -5.2598838380167944e-06 -5.9809635148645610e-06 5.2453487018070011e-05  </DataArray> 
</PointData> 
</Piece>
</UnstructuredGrid>
</VTKFile>