<?xml version="1.0"?>
<VTKFile type="UnstructuredGrid"  version="0.1"  >
<UnstructuredGrid>
<Piece  NumberOfPoints="201" NumberOfCells="657">
<Points>
<DataArray  type="Float64"  NumberOfComponents="3"  format="ascii">-0.1373063194245214 6.036044787850752 2080.727456688645  -0.6256746419425422 9.271021990247128 -2080.296836127627  109.4583371002587 12.66231190174494 -1974.726903457193  200.4392578168926 13.37524491034108 -1673.286761888889  260.6397075450935 -9.906521850409785 -1208.985504539469  291.6252821170598 -25.65817298194585 -633.9584092471298  304.8109358507032 -27.0018029452649 -0.3164339833908522  291.7495130252853 -3.395149632422519 633.1878588734105  259.9374546515103 9.950200406789726 1202.4486734605  199.5359075630397 8.307930056736781 1666.317116901095  108.7994818563526 7.275341492158958 1971.921305780131  124.6762283745266 -2954.410782580976 -1883.742400880584  159.2999019481367 2311.897074387388 1891.142530966463  294.5305980207445 -3041.545992093457 -317.3059506612192  225.5874526396758 -3039.409796398447 1445.03854333516  317.1608049761517 2982.641952536615 896.4686417979498  318.3775276409165 2993.687352252277 -916.0127101355613  183.5842200704599 2685.983059795938 -1843.782160165831  37.36157742248896 -2588.448664833936 2049.353334169181  221.0162494592425 -2820.921765483547 -1455.436201773561  166.1297806274313 -5058.420746842121 -1660.470109225943  251.5003925988094 -5210.980498057449 -1138.001312811236  199.2676018244198 -6784.100326815652 -1226.007637784624  280.5212731723256 -6692.444282885222 -593.5710440642644  200.1576198480645 -7779.479067908674 -557.7434134563414  275.7453703887111 -7339.997293052824 133.5704278416494  149.9546883229403 -8106.810420109492 260.5738110014846  208.7817581651517 -7353.500303309182 928.4300091501116  51.45669014071109 -7830.007107042501 1039.815040724075  110.7570335056356 -6680.021476958475 1557.062818581066  -55.34019744360712 -6993.4075283138 1604.931436953498  274.7464723421477 -6323.726146251345 712.8702890224822  262.3588231351209 2818.137207334952 1453.94487781873  329.4423995552231 5226.176077191181 1186.204161884441  375.807864174076 5241.930703355588 530.2118816145893  12.61217778290202 -5461.911421406811 1918.457905549444  136.6231265987058 -4965.298871115927 1758.760793749188  238.7409082025453 4803.074518196275 1694.266367130182  278.8871987294366 6655.416883523796 1330.571127657878  293.8889786328176 -2960.130881030353 316.8668894784298  296.77336632408 -5616.321045292492 40.47108099412725  272.902896894671 -2989.624509188934 -892.8758328473011  77.19987502298171 2601.187603426995 -2046.233880449749  262.3520649626998 2755.899785008023 -1475.075970089998  325.0960855483917 5186.525789885987 -1208.860589181583  72.25644981816458 -7658.621294282928 -1152.540407143371  -141.6075621953492 -7899.077843373761 991.2994738438867  52.84470382175917 -5004.153215962682 -1933.187619593335  373.751835373631 5296.533841231762 -551.5923368392149  362.250274826754 6865.894022886164 -745.1478604466338  266.1091053156328 6501.982324959981 -1419.000776575885  256.6376793161386 7711.077023440853 -869.6467361631071  133.0767668576569 7210.13862683286 -1464.417592581903  81.37738129557519 8079.646941418891 -819.8023964020095  -42.47132018378831 7383.601572633817 -1369.967391099175  -110.4017945557802 8038.591294625359 -615.2412638212686  -200.6665183666813 7225.889018652252 -1030.224655883456  18.94895394644886 8345.789944069198 55.03336519051808  -220.075075064534 -6882.486413921242 1458.9266454975  -308.7643493051656 -7593.343810978608 762.19293483845  -252.3334899291983 7563.287759546429 -286.3480216564552  -285.3342210674616 6396.997760649097 -655.5309273863315  -306.3313152918616 6457.18591105234 57.2330936961615  -293.4463039832709 4647.610095914309 -364.0548899430912  -294.5249653424621 4442.441948578502 337.3376826842011  -264.397604970375 4292.837650271151 -1034.563755058758  -278.9865837172923 5993.55995871763 798.6483738246716  -279.9994059017279 2041.956756978178 -612.1894909202711  -267.9645465519995 3646.333581580366 964.137745696701  -251.3114836065536 1257.759733802654 -1216.474115197557  -300.6461719709288 -1457.674737319028 -874.3356577196773  -223.2122827423875 5000.808974104484 1410.946188753634  -86.25949992088673 -3886.089580911808 2028.455165715965  -328.6018207204187 -6309.773554024024 1123.375945204141  -259.3653260582458 -1869.080549349217 -1409.751378105922  -328.8367295552588 -4316.872955959176 -1074.07521476964  -287.6557377230478 1287.674463031711 518.2353174274074  -118.4162635010335 6064.179361601646 -1683.155882699981  -219.4355019512859 2263.057717830372 1468.089385019684  148.980881711357 6052.006178775699 1789.408249899684  -352.7418459067055 -3756.892483102244 -370.5579103309651  -194.6619250531433 733.6821327681506 -1677.388138656733  -146.8975449567838 3800.642653466253 1782.120539634895  -259.4987322161659 -4375.575080518537 -1597.464494770186  -321.2506032389248 -6269.600331322617 -1184.368968673815  -205.7966500269339 6815.038010186461 1190.399488112542  -214.2048396869764 -8215.124462028385 190.1475558948849  -162.5778399827833 660.3267242380887 1817.356130181361  -243.7698795691846 -1002.72122127703 1449.169880140424  -205.6678690261418 -6035.681279588536 -1678.395874848525  -244.258144853144 -7417.467542539897 -1153.344571477519  -148.8439260934095 -3984.966695446576 -1940.587524489064  343.716149937693 7698.418937049591 -80.88491608310707  -380.6585641469189 -6830.378190921001 462.6876818986782  -360.6274236431748 -5002.627430099378 718.5768497886817  151.489548626993 7478.852851945939 1305.271942330334  11.33839197022398 6827.106105005491 1655.80666011282  29.93157047582323 5358.990497575051 1962.121033271682  -81.37874561342592 2426.952715547461 1983.676194358495  -230.1576757494508 -5150.478739016138 1678.124780300302  156.0444524593609 5952.637649192564 -1794.312069273888  -350.5309512610413 -7346.23015986312 -598.6620797402078  2.625793261394247 4656.347256769849 -2009.129831330319  -45.83950687231426 2101.617815329768 -2042.526950605021  -18.98154716825345 7918.990491229553 993.3693656909138  -89.35673238945813 -1522.30846280861 2020.956646699055  -89.00013681786182 -7108.768330073906 -1550.037987055336  -188.6010696211711 -2456.236984374304 1828.932401906428  -299.1505090986459 -4068.164367094109 1321.449326621147  -306.23015723811 -2143.625630783044 928.8684889195365  -337.736247222191 -2830.914586733751 301.6578994704303  -306.8510403867875 -404.5062492470207 -177.8272034601094  -125.0171181127218 4123.286328959003 -1850.738968205842  -202.4063247717355 4668.082086804708 -1524.999925277618  -104.1288192194551 -7969.728106449274 -961.8292184106763  27.93499066393044 6504.218074213605 -1759.912959854795  284.065817067631 7704.730552753515 745.3588458584607  273.5828682643656 -2852.547985653907 933.2978932709843  -1.088008527145958 -2698.092070950778 -2067.475060484795  51.42937675374108 -8237.207682539321 -463.7331224548507  -104.1188647768114 5826.301563580373 1759.549200014399  338.0487150984897 2867.898841013524 -319.6474317217181  368.7819478873786 6846.718983855912 677.5531138155758  399.263430277638 6488.564614821738 -28.49670444087234  -377.6657111616382 -5949.800157229003 -617.9722461107483  -155.0548229290043 8079.16179111265 230.0745217112833  -255.4884255859188 7384.5532603579 504.3993211179848  -64.81755166791069 -5524.713846587351 -1930.302359694848  -93.41283773080399 -1094.553588591138 -2019.664321141463  -189.3677990807653 -1804.02582402206 -1791.538672902684  200.2583038520401 8229.791356238216 -156.0125926531748  -32.97357467840534 -8326.565120584319 335.0421861683808  207.2987561786425 -6008.461869382354 1343.411634848534  338.1482130009903 2898.269674229006 283.212558427796  143.9859689087402 -2645.877030164885 1848.925821406719  -385.5376099948897 -5563.393202075722 58.9274446775482  -127.433683054605 -5956.987909265779 1820.168170418469  239.7180659938786 4658.186430495246 -1687.689700007071  -267.0265293637303 891.8777023055253 1045.155502449284  69.94518892204884 -6596.723755623355 -1645.683597993178  139.6804825689167 4510.100626724811 1947.971625801063  141.4611222918712 8150.248600657182 627.0225394852625  -241.9634577774767 6028.181928541203 -1169.131190782391  287.0086646183698 -5050.256818475932 -605.5661954136539  12.89049328514497 2504.015986461955 2064.639797472634  261.6962969609874 -4823.193498724641 1044.130422298941  -294.6253083359706 2731.071349758253 -49.31397968788868  -348.7007814430758 -7695.686589561918 25.66755467941914  -249.0801089761532 -8043.572222469241 -488.493123078309  375.2691342420389 4764.81006308434 -16.55467804921883  -61.21458748411598 4612.228868111094 1954.509447476585  149.2203593596995 4219.279235073824 -1941.584935369287  -116.3525004725725 745.205843228029 -1951.13878904173  -162.9789686110747 7643.472614682564 903.0359218541796  287.5656184162651 -4750.593560036435 626.5067132926333  -95.76394024256393 -8329.141259643993 -304.8946979197243  -209.4459710162633 2688.131590196457 -1544.981940477188  -143.1887733257291 2205.485538784444 -1850.008750221975  -104.3179725614148 7073.875634499572 1423.287796478552  -393.0783852074379 -6828.730373393657 -148.2924932925542  -1.647710532493176 -18.2019420928073 -1.555535037415193  -148.7579934959085 -4301.161922365533 63.97974936530988  164.1464259849691 1794.363854974184 -14.89084702710609  -35.5645736274372 4473.839460855888 495.6735631012844  96.02198358826894 -3280.707731711773 431.3514762073927  -70.28072016203011 460.9654722874628 -914.2895455771412  -141.6611563072645 919.4230693469451 -1.07319619332923  74.42888634281243 4969.273016902191 -441.7874365810998  90.12006887636556 -2599.30912955314 -637.8171677974763  -85.5213308366634 -502.9059886029332 888.003741888848  117.2111115525808 3794.256258045959 764.9464001651531  -66.65534384184875 -4242.980277284644 -846.3977834895591  -9.88331793672047 -5890.321497662854 4.620410027984986  78.05690392145453 1694.312986482863 -1028.745326473048  -65.
[...]
<PointData  Vectors="Coriolis"> 
<DataArray  type="Float64"  Name="Coriolis"  NumberOfComponents="3" format="ascii">3.7309288743365090e-09 -1.0038661590250167e-10 0.0000000000000000e+00  1.2139462538792572e-09 7.5007000716585228e-11 0.0000000000000000e+00  2.2270771073308489e-09 2.1238440832620519e-08 0.0000000000000000e+00  1.7511411948882236e-09 3.9660012745868861e-08 0.0000000000000000e+00  -7.7793332170250066e-09 5.3855632317880392e-08 0.0000000000000000e+00  -1.5656931488947787e-08 6.2251282078479439e-08 0.0000000000000000e+00  -1.4872463470490197e-08 6.4122923499025010e-08 0.0000000000000000e+00  -2.8008050130999903e-09 6.1828363194542831e-08 0.0000000000000000e+00  3.0403124374541117e-09 5.3615734161913296e-08 0.0000000000000000e+00  3.4736639539244370e-09 4.0209389864515272e-08 0.0000000000000000e+00  3.9488516046781027e-09 2.1710741967070888e-08 0.0000000000000000e+00  -7.3254047515809293e-07 3.6123682563687983e-08 0.0000000000000000e+00  5.7658341917370804e-07 1.6525292709188534e-08 0.0000000000000000e+00  -7.7064159559750402e-07 6.7405262980221425e-08 0.0000000000000000e+00  -7.5746741540328574e-07 5.2586338110400309e-08 0.0000000000000000e+00  7.5348192334981808e-07 4.0881865458187552e-08 0.0000000000000000e+00  7.5975574633804820e-07 3.9717101001715493e-08 0.0000000000000000e+00  6.7319667053548169e-07 1.7085086199990098e-08 0.0000000000000000e+00  -6.4324073951366282e-07 1.9853282451461149e-08 0.0000000000000000e+00  -7.0917949254348086e-07 5.2205174257224106e-08 0.0000000000000000e+00  -1.1733876850530865e-06 4.1834723752975125e-08 0.0000000000000000e+00  -1.2186424751871287e-06 5.3066087548216762e-08 0.0000000000000000e+00  -1.4497932171891392e-06 3.6745982883850212e-08 0.0000000000000000e+00  -1.4629676464737199e-06 4.4240285010203636e-08 0.0000000000000000e+00  -1.5632319593180036e-06 2.7599477190427983e-08 0.0000000000000000e+00  -1.5382158167630904e-06 3.4967081062213446e-08 0.0000000000000000e+00  -1.5838391202586841e-06 2.3424106894912880e-08 0.0000000000000000e+00  -1.5209009432579201e-06 3.1062146360138892e-08 0.0000000000000000e+00  -1.5469751111881065e-06 2.4933723349598242e-08 0.0000000000000000e+00  -1.4244118921348237e-06 3.0283321150057340e-08 0.0000000000000000e+00  -1.4554861974477570e-06 2.3325996870744770e-08 0.0000000000000000e+00  -1.4177727189960556e-06 4.9748112237109059e-08 0.0000000000000000e+00  7.0751941290110225e-07 3.1592107503469118e-08 0.0000000000000000e+00  1.2231450721159935e-06 1.2285246491690299e-08 0.0000000000000000e+00  1.2424458193302406e-06 1.9111590034792068e-08 0.0000000000000000e+00  -1.2378188391405345e-06 2.4499694081106468e-08 0.0000000000000000e+00  -1.1522831985123319e-06 3.8804340344474943e-08 0.0000000000000000e+00  1.1291491203343356e-06 5.0304433895387801e-09 0.0000000000000000e+00  1.4262046712058528e-06 -9.3411464674539595e-09 0.0000000000000000e+00  -7.4966127798641288e-07 6.7772528673349426e-08 0.0000000000000000e+00  -1.3095380910934545e-06 5.9905974121919334e-08 0.0000000000000000e+00  -7.5586541567493464e-07 6.2829829395719780e-08 0.0000000000000000e+00  6.4859051715838842e-07 -7.4112595627224439e-10 0.0000000000000000e+00  6.9719453298375480e-07 3.0666866299611782e-08 0.0000000000000000e+00  1.2135199808698842e-06 1.3022704588914381e-08 0.0000000000000000e+00  -1.5322142990760206e-06 2.6178770914245718e-08 0.0000000000000000e+00  -1.5529580933050250e-06 2.3996292128374794e-08 0.0000000000000000e+00  -1.1517318807062732e-06 2.8317447667571440e-08 0.0000000000000000e+00  1.2543846516684470e-06 1.8688448643917460e-08 0.0000000000000000e+00  1.4740136093886982e-06 -6.8104821107369467e-09 0.0000000000000000e+00  1.4062056707995229e-06 -8.1937804070823402e-09 0.0000000000000000e+00  1.5425045194204433e-06 -2.0883320947471112e-08 0.0000000000000000e+00  1.4788230725045904e-06 -1.9919657329488602e-08 0.0000000000000000e+00  1.5637467606024377e-06 -2.4546257844537055e-08 0.0000000000000000e+00  1.4980263202796120e-06 -2.5704955130728239e-08 0.0000000000000000e+00  1.5673133009656239e-06 -2.4791543335604977e-08 0.0000000000000000e+00  1.5012296953631092e-06 -3.2469478961207633e-08 0.0000000000000000e+00  1.5864066731635531e-06 -2.4021897652767349e-08 0.0000000000000000e+00  -1.4532249440323056e-06 1.5804626130075043e-08 0.0000000000000000e+00  -1.5450616110529849e-06 2.0396135562894977e-08 0.0000000000000000e+00  1.5488856227528457e-06 -3.0924370074578265e-08 0.0000000000000000e+00  1.4239703053729863e-06 -4.6411653536146707e-08 0.0000000000000000e+00  1.4375079435354747e-06 -4.6665351497780363e-08 0.0000000000000000e+00  1.1293871890859895e-06 -6.3966619911101249e-08 0.0000000000000000e+00  1.0861872085029437e-06 -6.4598315780154281e-08 0.0000000000000000e+00  1.0446547396332033e-06 -5.8908769844703035e-08 0.0000000000000000e+00  1.3600377812095751e-06 -4.9877560162603522e-08 0.0000000000000000e+00  5.2869703801020152e-07 -6.8204704640916167e-08 0.0000000000000000e+00  9.1176915752593475e-07 -6.2180912029412496e-08 0.0000000000000000e+00  3.2260936910496823e-07 -5.7799337401209760e-08 0.0000000000000000e+00  -3.7773397148372208e-07 -5.0675807321481745e-08 0.0000000000000000e+00  1.1746452814869808e-06 -4.7916238845552532e-08 0.0000000000000000e+00  -9.2886497611820273e-07 7.2171667809936531e-09 0.0000000000000000e+00  -1.4001014995956918e-06 1.8671972097926679e-10 0.0000000000000000e+00  -4.7818247619315834e-07 -3.8269124146667437e-08 0.0000000000000000e+00  -1.0485741034445121e-06 -2.4685464655159346e-08 0.0000000000000000e+00  3.2868525895150987e-07 -6.6788068148308902e-08 0.0000000000000000e+00  1.3341503658327900e-06 -3.3704759298705284e-08 0.0000000000000000e+00  5.7029406455601808e-07 -5.3039910864575623e-08 0.0000000000000000e+00  1.3265008694187454e-06 -1.3649560046496798e-08 0.0000000000000000e+00  -9.3617011740309414e-07 -3.7164410925709139e-08 0.0000000000000000e+00  1.8666013971744517e-07 -4.2103581671573771e-08 0.0000000000000000e+00  9.2905354725477531e-07 -4.1458787152482185e-08 0.0000000000000000e+00  -1.0460218343089612e-06 -1.3007949168046867e-08 0.0000000000000000e+00  -1.3874759236059073e-06 5.7300073928145630e-10 0.0000000000000000e+00  1.4549038090318872e-06 -3.6197721650382911e-08 0.0000000000000000e+00  -1.5900125076942303e-06 2.5563801356991230e-08 0.0000000000000000e+00  1.6876498768686626e-07 -3.5027517758187796e-08 0.0000000000000000e+00  -2.6147403759381833e-07 -4.2217451160958503e-08 0.0000000000000000e+00  -1.3303120754421729e-06 8.3251267122268304e-09 0.0000000000000000e+00  -1.5159644180820526e-06 1.9036389066979455e-08 0.0000000000000000e+00  -9.5585946402431127e-07 -1.2137906408793271e-09 0.0000000000000000e+00  1.5581988865356015e-06 -1.9047919413069838e-08 0.0000000000000000e+00  -1.4916317638434326e-06 2.8853951207920723e-09 0.0000000000000000e+00  -1.1880713240960100e-06 -2.2003108880205421e-08 0.0000000000000000e+00  1.5091863588579010e-06 -2.0614393079224879e-08 0.0000000000000000e+00  1.4290796380215227e-06 -2.4088778975419965e-08 0.0000000000000000e+00  1.2151407243666987e-06 -2.0867927035725727e-08 0.0000000000000000e+00  6.0228480007785817e-07 -2.7239851370441492e-08 0.0000000000000000e+00  -1.1915598778151364e-06 -3.7647001157941102e-09 0.0000000000000000e+00  1.3148738376379572e-06 -1.1822315315236974e-08 0.0000000000000000e+00  -1.5389823825662329e-06 1.2519324124925915e-08 0.0000000000000000e+00  1.0854445145672818e-06 -2.1360830871761731e-08 0.0000000000000000e+00  5.2840177028709722e-07 -1.9108221535093406e-08 0.0000000000000000e+00  1.5506848216246547e-06 -2.4339657279004624e-08 0.0000000000000000e+00  -3.8872673133458253e-07 -7.9617909576957004e-09 0.0000000000000000e+00  -1.4690836960251442e-06 2.1995471705799197e-08 0.0000000000000000e+00  -6.1823278127668742e-07 -1.8368016545201847e-08 0.0000000000000000e+00  -9.8698682845034826e-07 -2.3415446125453026e-08 0.0000000000000000e+00  -5.5442722270657752e-07 -4.5307740921823893e-08 0.0000000000000000e+00  -7.2461543830768621e-07 -4.5637099253390213e-08 0.0000000000000000e+00  -1.1399915509946628e-07 -6.1788819851810256e-08 0.0000000000000000e+00  9.8831050567888147e-07 -3.7116161992857717e-08 0.0000000000000000e+00  1.1052647398734825e-06 -4.7521136958384351e-08 0.0000000000000000e+00  -1.5594565742601605e-06 2.3799798734577137e-08 0.0000000000000000e+00  1.3895672827243916e-06 -2.3120847284290310e-08 0.0000000000000000e+00  1.5463893610860049e-06 -1.9878686673049274e-08 0.0000000000000000e+00  -7.1953982855879760e-07 6.2559161393941788e-08 0.0000000000000000e+00  -6.6864786881256320e-07 1.3627681521697909e-08 0.0000000000000000e+00  -1.5872727426237710e-06 2.3080860609491076e-08 0.0000000000000000e+00  1.2960086756384424e-06 -3.2250006354506055e-08 0.0000000000000000e+00  7.3410173609982118e-07 4.5678685688997885e-08 0.0000000000000000e+00  1.4745893550890825e-06 -6.0386277239250237e-09 0.0000000000000000e+00  1.4429739635671268e-06 1.6688664416748938e-09 0.0000000000000000e+00  -1.3528864026942536e-06 -9.5228807688959513e-09 0.0000000000000000e+00  1.5773683107336715e-06 -2.4750375380121768e-08 0.0000000000000000e+00  1.5289254628120146e-06 -3.2884748636108342e-08 0.0000000000000000e+00  -1.2402357525408088e-06 1.7599037070755931e-08 0.0000000000000000e+00  -2.7905362721060741e-07 -1.1247223836513355e-08 0.0000000000000000e+00  -4.5786041684910153e-07 -2.4923409057932619e-08 0.0000000000000000e+00  1.5838313555325217e-06 -2.5077987471399697e-08 0.0000000000000000e+00  -1.5904177617444138e-06 2.3807507185725935e-08 0.0000000000000000e+00  -1.3499258096928248e-06 4.4527553183958807e-08 0.0000000000000000e+00  7.3918220997585247e-07 4.5830396029761675e-08 0.0000000000000000e+00  -6.5939696359013038e-07 3.7441706762017029e-08 0.0000000000000000e+00  -1.3018467763576353e-06 -1.7879218161389880e-08 0.0000000000000000e+00  -1.3187836854857795e-06 1.3596906082466324e-08 0.0000000000000000e+00  1.0967123085715956e-06 6.9360300363352564e-09 0.0000000000000000e+00  2.2957277720253704e-07 -5.9378909760836882e-08 0.0000000000000000e+00  -1.4056328102172872e-06 2.9338425863850936e-08 0.0000000000000000e+00  1.0648136708828226e-06 -4.6745302235108566e-09 0.0000000000000000e+00  1.5713278442081127e-06 -2.4089265684515667e-08 0.0000000000000000e+00  1.3527304295678648e-06 -4.5230305624657354e-08 0.0000000000000000e+00  -1.1990138692841644e-06 6.0670191437253262e-08 0.0000000000000000e+00  6.1968158794630678e-07 -1.0615372197067152e-08 0.0000000000000000e+00  -1.1481014062470402e-06 5.7000768091768960e-08 0.0000000000000000e+00  6.9915275309531613e-07 -6.9609632581317019e-08 0.0000000000000000e+00  -1.5680348498766183e-06 1.8941570624433053e-08 0.0000000000000000e+00  -1.5795803203966224e-06 2.4328298447755596e-08 0.0000000000000000e+00  1.1535896229695267e-06 2.7203619970755358e-08 0.0000000000000000e+00  1.0853437737451970e-06 -2.8972736714153697e-08 0.0000000000000000e+00  1.0029980292745720e-06 -1.6415078798605062e-09 0.0000000000000000e+00  1.8943257843535908e-07 -2.5574283666307737e-08 0.0000000000000000e+00  1.5371083210487532e-06 -2.7877484278819805e-08 0.0000000000000000e+00  -1.1404306168066181e-06 6.1648744157691061e-08 0.0000000000000000e+00  -1.5924334581474742e-06 2.4424224230771965e-08 0.0000000000000000e+00  6.7650815793210306e-07 -5.0824838977490191e-08 0.0000000000000000e+00  5.5623813197911832e-07 -3.7354190312843902e-08 0.0000000000000000e+00  1.4681796436723148e-06 -2.9173337950804331e-08 0.0000000000000000e+00  -1.4847679231647140e-06 3.1480666100797736e-09 0.0000000000000000e+00  -1.1598811486924089e-08 5.1322821319124273e-10 0.0000000000000000e+00  -1.0529804461154713e-06 -6.1110108552107215e-10 0.0000000000000000e+00  4.6893464696988096e-07 2.2974223756381869e-08 0.0000000000000000e+00  1.0956784369971347e-06 -2.7368699994354984e-08 0.0000000000000000e+00  -8.2616371147537723e-07 3.3709885966983376e-08 0.0000000000000000e+00  1.1295035724467419e-07 -1.6933463668904445e-08 0.0000000000000000e+00  2.4023699258929081e-07 -3.5788634967175676e-08 0.0000000000000000e+00  1.1940063456543998e-06 -1.3963344765486175e-08 0.0000000000000000e+00  -6.6434315568727320e-07 3.0272173483020677e-08 0.0000000000000000e+00  -1.3397666366454211e-07 -1.4618241782120263e-08 0.0000000000000000e+00  9.4551955426331224e-07 -4.0162350191420619e-10 0.0000000000000000e+00  -1.0389105387121154e-06 1.1218789287352496e-08 0.0000000000000000e+00  -1.3608762459284183e-06 2.5083078641426508e-08 0.0000000000000000e+00  4.3839920664142723e-07 5.9625863779017077e-09 0.0000000000000000e+00  -1.1226545486196043e-06 1.3454634426135504e-08 0.0000000000000000e+00  -1.5919303577972467e-07 1.4010079736155624e-08 0.0000000000000000e+00  1.1370774111817445e-06 -3.5381208795648949e-08 0.0000000000000000e+00  -6.0439866110256775e-07 -2.0527763531633484e-08 0.0000000000000000e+00  8.2633711135985695e-08 3.1331906621437099e-08 0.0000000000000000e+00  7.3134000086314673e-07 -1.5573678162626327e-08 0.0000000000000000e+00  1.3952323102467287e-06 -1.8051493586497722e-08 0.0000000000000000e+00  9.7575487447230137e-07 8.1057865273185956e-09 0.0000000000000000e+00  1.2669035779781637e-06 -3.3343330570485977e-10 0.0000000000000000e+00  6.5981273446951338e-07 -4.0679867547115592e-08 0.0000000000000000e+00  -5.6493313616426469e-07 4.5435472681553819e-08 0.0000000000000000e+00  1.0241222730401291e-06 -2.3114259620089862e-08 0.0000000000000000e+00  -6.2298013231941627e-07 -2.5194729451091001e-08 0.0000000000000000e+00  9.6578262398824329e-08 3.5622780753624440e-08 0.0000000000000000e+00  -1.2452157931032817e-06 4.0165419071520194e-08 0.0000000000000000e+00  5.4373170999281898e-07 -4.2745873909926970e-08 0.0000000000000000e+00  -5.3896480193582482e-07 1.6071956164224762e-08 0.0000000000000000e+00  -1.4101532617508534e-06 1.5187405334491533e-08 0.0000000000000000e+00  -1.4473362282767466e-06 1.6504130252852118e-08 0.0000000000000000e+00  -1.3484142227887289e-06 3.0952463376711514e-08 0.0000000000000000e+00  1.2518634921248283e-06 -4.2607154949386074e-08 0.0000000000000000e+00  -1.3215845762388918e-06 2.9364779032807837e-08 0.0000000000000000e+00  1.4548566815226881e-06 -2.6793918617609456e-08 0.0000000000000000e+00  -6.9389001550957971e-07 -8.9200392365966167e-09 0.0000000000000000e+00  9.0355385159303551e-07 1.8761520343236916e-08 0.0000000000000000e+00  8.5438930569071819e-07 -9.4154059775210829e-09 0.0000000000000000e+00  4.9579780490070790e-07 5.3473572719932382e-09 0.0000000000000000e+00  </DataArray> 
</PointData> 
</Piece>
</UnstructuredGrid>
</VTKFile>