<?xml version="1.0"?>
<VTKFile type="UnstructuredGrid"  version="0.1"  >
<UnstructuredGrid>
<Piece  NumberOfPoints="201" NumberOfCells="657">
<Points>
<DataArray  type="Float64"  NumberOfComponents="3"  format="ascii">-6.266342907331301 -9.313459816738611 193.9190466236377  4.937879621172961 9.296556366889012 -194.0830461179173  693.4909888437338 -12.84141448004622 -233.6325343556933  1278.51270820995 -30.08394453379076 -249.9471229916978  1703.495074604039 -39.61628537221424 -231.0065461619962  1958.384213974295 -43.20857256907863 -170.4281902564926  2043.445100723387 -44.5111489028275 -87.74083833438286  1958.460070027495 -45.04904453205895 -5.00909966480089  1702.569136883604 -44.3384576342695 62.19599331047663  1274.548134484017 -40.43900811154931 109.297392833823  685.3735233071923 -28.29726290113809 150.3194877930534  880.0617576668103 -597.5663640657181 -168.1902618332733  841.5651686897232 419.4962910872805 83.37075205680605  1961.053590935891 -534.49523724098 -83.88201525493122  1469.58920225893 -590.0938854764917 142.799218585504  1782.544950790352 458.3520783465009 -20.03638184905789  1776.241519054856 460.0530751625944 -240.790291032057  943.4148183175043 495.1773242646771 -298.9795921500512  347.5581657849453 -541.8403106800138 236.8605215026101  1464.975862902977 -541.6576341917458 -185.006933315307  1041.519764103326 -1021.113807742513 -112.6446221538302  1493.789507070513 -995.4406806385277 -103.5248434387037  1039.045957846711 -1394.200708731233 -37.09279186129574  1425.597199129556 -1306.017750176037 -12.62413854536519  911.5294124372331 -1633.287996688894 50.92433056104771  1274.024180798611 -1474.310914994699 83.23959414359339  689.9735767319097 -1734.641188658696 145.4226988026594  988.6634671398482 -1527.579607062332 181.7165348328015  382.9544985188936 -1693.919631868514 232.9541551565698  657.5513493503224 -1413.471008362534 254.6802560039019  12.82145614680921 -1498.609783238604 297.5076429137249  1488.458885631459 -1215.687219109089 114.8232985587642  1436.226830429319 466.1514946036892 33.05549048494505  1415.447213159066 929.8137502382242 -36.62874797013294  1691.634043975031 875.9069214055744 -96.17048293078692  268.6200244440899 -1147.647377364509 290.2711344752053  898.0400971020622 -1019.896846106225 232.2709631023498  987.6531498572713 910.7421611566651 10.80481939526856  917.8115496835113 1325.078468292383 -52.48901252910144  1964.602489918468 -523.2238929225699 -3.565630662785225  1742.376533006468 -1027.606718914092 14.05794787496942  1813.06396409555 -542.9793368642291 -147.0828114998288  323.0469933175634 521.7519018959398 -275.7802181339978  1424.059545101391 460.5558877016553 -290.1237962186731  1404.973641690432 927.9189156773464 -290.3714938387178  468.8916102976526 -1648.822940413067 30.70188457216083  -259.8786801466448 -1696.100328867591 259.7782289238515  473.4084104568425 -1043.244581417013 -84.94334289932608  1679.960232931063 888.6393713939308 -219.9929794898295  1242.508456667668 1307.374768949467 -252.057849377864  889.4817541220741 1297.122349387172 -310.441337796834  676.6453208462087 1603.957803078678 -259.822407555244  283.2707240318434 1533.875720048399 -299.1839700205481  50.541494871475 1751.524326917053 -235.25135474902  -366.9353133772342 1592.502379360298 -260.2181529488963  -572.7361295557203 1734.104933160979 -184.1990672759276  -982.161774452128 1505.080608745198 -190.8153725933472  -144.8686119417524 1818.308734241219 -149.8444546186645  -633.5790548223518 -1418.900226900691 310.3349284320349  -868.5282986139936 -1542.73484131812 254.0327846651032  -1135.326538684072 1553.909383840615 -111.4680183892778  -1487.419665843605 1235.97539793835 -110.4548954655302  -1573.456669559927 1229.201747420245 -28.49152570295981  -1837.270127205596 830.4903287180321 -32.24129535613174  -1860.656181059181 790.1756446490616 57.27889934630518  -1657.758683151943 796.8631028869665 -113.1400565118179  -1526.99456264607 1146.215265700963 55.06080296543721  -1939.405457627979 373.5758470494725 -22.62383259215932  -1742.550975123486 661.7269908786643 138.4195261352675  -1687.235007290252 259.1149685827957 -85.7619683212522  -1853.03014140822 -196.0213690134468 -1.81183858114683  -1331.07857148658 977.9338146994088 118.5921472702217  -285.0611802346505 -795.2196292017998 299.1499342904665  -1220.545283426412 -1191.297371881431 288.410254796334  -1517.507227050822 -288.0600216812759 -47.77386834568513  -1595.509119948672 -723.85051151039 28.40613061862667  -1977.104423170261 252.7118886388178 136.7213081678241  -741.4059832647848 1271.684235362112 -252.4209847600582  -1471.80420041503 442.8030527508424 198.9802465099714  423.1016862132151 1252.330115328651 2.031189117425984  -1878.157205744691 -576.7216483361143 90.32799356228453  -1264.463084430766 173.8614102243882 -125.6983369423291  -1007.850756371141 758.3895054296388 150.105710973574  -1169.152716428634 -801.4584885122376 -11.66692013908331  -1187.615006061543 -1189.404886200252 57.39698323234688  -1060.891195749477 1399.695481860751 34.09357589201225  -474.3065520248189 -1744.325062452488 195.4526356911187  -1055.873644604085 148.4330161324614 232.057886477138  -1501.834121869567 -140.6560812523904 262.8930513407281  -683.919547626678 -1220.903496852775 12.23008205033191  -663.8263289954429 -1535.55101404336 75.61871681094054  -611.9955492818655 -781.5080642151869 -52.06898380391614  999.0756088197194 1541.306096793492 -190.5471771424306  -1365.030896076188 -1263.955597886226 223.8412947561883  -1667.644044871813 -841.8307228067332 237.7867630827227  331.2705714117454 1588.919144476348 -56.11170762658453  -178.2347571312264 1461.653945752535 4.571963603768439  -84.48706281540781 1119.185011536181 52.70708365331914  -621.3498251330465 493.681454827304 168.0988597822022  -937.5021677164806 -996.3398183523061 324.5565802822457  471.4547552295103 1228.733324673393 -324.7745963440209  -1113.498746866123 -1432.287404350889 125.3685169148123  -186.7664593162363 977.9059315409338 -287.2299791758683  -375.4885965418009 440.8964927174281 -223.3994378472997  -272.0593044189912 1716.949679078893 -59.78231948616282  -467.4252677458028 -293.7189622593164 258.2066601533689  -111.0407811540943 -1517.761177669874 23.41758399314316  -985.2815208524795 -449.4244610125443 295.8797617445491  -1461.608043611495 -705.7603273001068 292.4372733605982  -1808.211587407963 -311.6965981474801 232.8832823076189  -1947.617077232995 -411.0112828054867 162.3692752121903  -2032.024814396857 -14.36969082781497 68.2836226338945  -855.6792580209167 847.4733242068135 -227.308980490883  -1258.723837032234 926.4190398096749 -187.5972980288873  -134.7463170640757 -1719.194247759636 83.33882169722919  -107.6428294544926 1387.920541870225 -300.0195564102374  779.8446739410662 1584.179988419797 -114.3993690779948  1801.583251435238 -523.0866213045952 74.16806385897047  132.4477077843248 -546.2671640438175 -128.7876261174057  363.9149978912288 -1785.326688071995 102.3823202151817  -686.5805949510529 1218.37421539185 69.8365490673424  1945.452849699489 417.7725025103379 -166.1771686330137  1279.250829755212 1292.862197559992 -109.8714601745917  1510.457791652416 1161.31342116324 -173.6313984994615  -1540.482591458857 -1051.71972092563 100.9777176956996  -716.8220620168105 1729.96862936786 -98.90289716440346  -1173.273730869004 1509.337923940739 -29.8862709697771  -81.14978655945856 -1154.973649355211 -35.90435464139343  -509.9770106625543 -193.235465518698 -133.9430404164965  -1062.199180229843 -306.5388768058725 -83.48916671656045  429.8690026249891 1755.348639647621 -190.7442906428344  95.27674755095457 -1810.079514111741 187.3307346672626  1184.320263572785 -1204.598536938596 195.1016312916064  1947.993046059881 423.2655618219383 -88.73843681644802  968.2772186769779 -546.2877987726955 191.4743188889039  -1704.346053740618 -934.1122030991462 166.3397884854349  -351.5242293694293 -1236.247272692524 322.4990793540953  1018.742040851931 887.2613747069063 -320.9200325229418  -1791.873603499772 189.5685225551714 201.4021098711916  513.1471265515534 -1402.261229195826 -31.02195861775483  504.90328443751 898.5364972727203 43.47844090367879  249.0371785680742 1755.565072449715 -116.4366757550806  -1322.760811126065 1193.538751055308 -168.8895809421018  1741.04079529628 -923.0065205260427 -69.80936376032562  -55.36841413307138 498.984209725083 129.8903818071365  1595.739537944361 -907.4659488808303 124.9203199680913  -1993.661761396622 480.5256564893298 41.53815951577429  -1017.952544012645 -1534.334283869756 186.215518727051  -605.7225218303628 -1686.563722631779 137.1446541189343  1814.080137548472 765.4287376224473 -150.5151523334726  -519.3479151395775 951.3509751804402 100.899483193049  584.7299238465126 842.4516854647391 -316.4874807842818  -750.4234525539506 173.2047510763318 -164.5473646206979  -792.6175272931317 1622.361694150114 -27.86974617816436  1768.782998170125 -863.7082179442916 68.09787389096157  -99.05340038301243 -1803.68502061629 140.1763420944507  -1385.00251989686 531.7854051422786 -149.2878860282627  -969.9434776624873 458.1846744298405 -182.5555702058235  -624.6805577135547 1504.602089685345 13.41113765076149  -1405.351147603823 -1259.236508163537 161.3611426107793  -0.102581734837701 0.1747681306582505 -0.04516006649890303  -678.5932789220981 -733.0701424212839 133.3832467209577  1050.983549943728 263.9030586620554 -95.17598614121442  -450.1903491471306 805.0468865987984 -23.0813391869072  809.6101485814189 -587.5373133786017 62.92358337574608  -527.5847069809845 103.7762883656197 -66.90761984999831  -1094.82485773066 180.553934419686 44.50259000039826  183.1965210063563 891.7631471155617 -158.025946943573  759.1479930124317 -463.5668718292638 -52.3647318917554  -583.6121380186254 -71.09618166219391 131.8560727168479  532.2378980344048 650.2111254442641 -40.01178482827416  -179.5134780046129 -755.9710008084925 25.98981084535995  211.5456503709892 -1096.180341757185 114.6103670856717  439.0748001077222 286.4806009422538 -161.5730603712576  
[...]
<PointData  Vectors="Self-Gravity"> 
<DataArray  type="Float64"  Name="Self-Gravity"  NumberOfComponents="3" format="ascii">-4.5740971518203162e-06 -8.7417005425363948e-06 -7.2186641377395885e-05  4.0427636700693891e-06 8.3979049529625139e-06 7.0940104068201778e-05  2.6938329331982484e-06 7.7657465558454715e-06 6.6254040702226345e-05  1.7668591630277384e-07 7.4403832103646500e-06 6.4804733575573345e-05  -1.6208477180164001e-06 2.3446921531003077e-06 2.0505821267748091e-05  -9.5565239177977629e-06 3.2164722859832318e-06 2.9216034037208513e-05  -1.3025629964810855e-05 -1.0685950336827774e-07 3.0749291239556008e-06  -1.0514587095773450e-05 -3.0942841299773859e-06 -2.3045289636622917e-05  -5.5448749935119428e-06 -3.3555182862483271e-06 -3.2142517487191599e-05  -5.8547399458133748e-06 -6.3397123891629153e-06 -5.7462598180269166e-05  -4.7089981470945936e-06 -6.7948456299165760e-06 -5.9759316130801551e-05  1.3968257914826347e-06 6.5379729861983039e-06 4.5723198643412926e-05  -5.0922951630728820e-06 -8.3287202393168554e-06 -6.2835053927736385e-05  -1.6233640978025518e-05 6.3874428071375548e-06 1.5458274294760228e-05  -6.4371442333721901e-06 -3.7668910068425870e-06 -5.1530321704042979e-05  -6.8125809729625850e-06 -5.3268379672278626e-06 -3.2270921867287721e-05  -6.3928751388308390e-06 4.2307552577680091e-07 4.0556216837367644e-05  1.3635776228651183e-06 4.7376756945744507e-06 5.3678013026962399e-05  -3.6689665663930614e-06 -5.1998131597821288e-06 -5.4444965163846220e-05  -1.2152902795888929e-06 7.9187025339843080e-06 5.3786207316266012e-05  5.0268348032495601e-07 9.0172905761585838e-06 5.1353630166989372e-05  -3.8012719234222894e-06 9.9490204765818194e-06 4.0993301914228432e-05  -1.5273781149008678e-06 8.8984821397061215e-06 3.0123622579008772e-05  -7.4155558255897602e-06 1.2058839286941129e-05 1.9954098850453456e-05  -2.9310334180056398e-06 1.1889764666724411e-05 1.7556333659851385e-05  -8.9017545346784155e-06 1.1955541706764089e-05 -9.8141950749222238e-06  -4.5470219424871634e-06 1.3364840097570952e-05 -8.5878939401055005e-06  -4.6072836387586299e-06 5.1216489918505292e-06 -2.1610863763905326e-05  -2.9851225059648495e-06 9.3362274107975465e-06 -3.1380023838285263e-05  -2.1610713207606336e-06 1.2773263490924297e-06 -2.2267603416846728e-05  -1.8635294469484072e-06 4.0791299652363211e-06 -4.4267788521238459e-05  -1.0191198796153238e-05 7.1032439005289903e-06 -2.9397617508457155e-05  -6.8950311839514206e-06 -8.1540026266253206e-06 -5.4400636547965760e-05  -5.8312067877164589e-06 -7.8568347544435424e-06 -3.3156765440324702e-05  -9.4791194896337317e-06 -8.0915127326439987e-06 -2.4528661233727840e-05  -4.1241072489201650e-06 -2.3878777069865789e-06 -6.3125517176943960e-05  -5.7745648863496709e-06 -2.5413050110074727e-06 -5.9262361281629724e-05  -6.1284493983132272e-06 -9.6031389826158325e-06 -5.7842738953908195e-05  -5.2681133710896126e-06 -9.3371855824578981e-06 -3.3624616563136052e-05  -1.6048132923497749e-05 2.0381424167588239e-06 -1.9022464462875833e-05  -1.3409817622867599e-05 9.3190532128549192e-06 -4.3214060658610811e-06  -6.4943963360636142e-06 6.9334067244927544e-06 4.2153963289572892e-05  3.5229878200957836e-06 6.2447558373441144e-06 6.8296391055508232e-05  -2.5010993902710482e-06 3.4903159733022214e-06 5.7187546883319588e-05  -4.0455876453965002e-06 -1.5722040363582337e-06 3.5292581799980832e-05  3.4172929467032007e-07 8.8780468794207847e-06 2.8664864199709554e-05  -1.0317886097339459e-07 9.6448832844778245e-06 -3.5691807024180285e-05  2.2361669595396146e-06 8.5239594037429583e-06 5.5122782576859860e-05  -9.1249867061566619e-06 -4.8874178661437095e-06 2.4928243544167156e-05  -7.4478407219230413e-06 -8.6503105863501313e-06 2.7333234015991498e-05  -1.7210271044434615e-06 -3.6450201515321452e-06 4.4747520210495405e-05  -4.3661628477597193e-06 -1.1018857862558427e-05 3.1524742762082558e-05  6.0622626168659018e-07 -5.9848770178047550e-06 5.1571742489818589e-05  4.5243490143276086e-07 -1.2595463214606125e-05 3.3356177869813845e-05  3.4679487900257871e-06 -6.9570297942381585e-06 3.9525724605411221e-05  3.4827048986907362e-06 -1.0463155931803312e-05 1.7313024530385049e-05  6.7730770669781054e-06 -7.1889781543047958e-06 3.8326965600325818e-05  1.3685408906137527e-08 -1.4451141744696061e-05 -3.0350925234145803e-06  1.2881731229052219e-06 5.0535647302979904e-06 -4.6121809181606135e-05  2.7559121256890778e-06 6.5685417255364450e-06 -2.0172035967145650e-05  7.5737614184711746e-06 -1.2274631956363421e-05 1.0097055149330291e-05  1.1085068187312106e-05 -7.2659039152812210e-06 2.8551606430123543e-05  9.5532622419902961e-06 -9.6380516176220282e-06 -3.7622659648458451e-06  1.1812757078042337e-05 -5.1234363011159955e-06 1.3813401627410948e-05  1.0205369496180856e-05 -7.1662529637180451e-06 -1.6598498071911395e-05  6.9630543854555050e-06 2.7340174789832300e-07 2.9804513041132345e-05  6.2600705854508417e-06 -9.0629446509073672e-06 -2.9476765144927886e-05  1.0361861053583257e-05 1.3945922764112157e-06 2.7458821690201561e-05  4.8642819066323910e-06 -6.1156247540058786e-06 -3.3341405820651692e-05  6.9690954052302423e-06 3.6565666175715679e-06 3.8129122240355296e-05  8.8340835007549712e-06 3.9790934282801325e-06 2.8283309898715705e-05  1.9907086187446686e-06 -9.9556878519784809e-06 -4.9803746888305446e-05  -2.3765091353161036e-06 -4.5166166722235468e-06 -6.3726850075481245e-05  4.3227923880430753e-06 3.7567682510384899e-06 -4.0749381188353518e-05  6.6085142260709569e-06 6.7818919175055224e-06 5.0628060230927014e-05  7.0999667323939752e-06 7.3615364738625872e-06 4.0992557343283805e-05  1.2212826450253503e-05 -2.7249684365332242e-06 -2.4340373213858900e-05  4.0908957681364223e-06 -1.7124206011613547e-07 3.7584273770561544e-05  1.6302472749655141e-06 -5.3046939398346251e-06 -3.6741116075752721e-05  -3.1872261872851388e-06 -7.7668911868453653e-06 -4.0592055820461094e-05  1.1628389953006341e-05 6.3004820993015713e-06 1.5239230574107302e-05  6.1003158112773573e-06 6.6076827912438381e-06 5.8769444625944955e-05  -8.3540669959936446e-07 -8.3395057958576974e-06 -5.6142914592771179e-05  4.1175463355252900e-06 6.5623372027604076e-06 4.3087907892158089e-05  4.9003318498918801e-06 7.6933125522534749e-06 3.5034840582842586e-05  2.7622150189304920e-06 -1.0567086088505499e-05 -3.4825252585437279e-05  3.2221288494470165e-06 1.2387912221129116e-05 -7.0937090100026917e-06  -1.0495976027516637e-06 -7.5564684662630217e-06 -6.4039248636443480e-05  2.9204710322990875e-06 -5.3527843370114951e-06 -5.6369683281669751e-05  3.9301386509588507e-06 8.4849600692466170e-06 4.3715889814514569e-05  4.3183458200853466e-06 9.9419736785820805e-06 3.1960130024953348e-05  4.5790794748392002e-06 9.4100065574388144e-06 6.4619356096865292e-05  -7.3212460052572975e-06 -1.3420408544917459e-05 -7.0215271706028252e-07  7.9537671674581406e-06 8.2956283433588563e-06 -2.2005599809153707e-05  8.5695830466602738e-06 3.8151344048632375e-06 -2.9627829757350282e-05  -3.4958136102619264e-06 -9.6699905326521693e-06 -3.5960405845901361e-05  -2.4948053639199878e-06 -9.4759742045729843e-06 -4.4486490386503269e-05  -3.4457957176890212e-06 -8.4207074016363299e-06 -5.4112357069265580e-05  -2.8706553469523195e-06 -8.0291346788682712e-06 -6.2164426736756117e-05  5.6483405852224839e-07 -1.1576268495283250e-06 -5.4347037320338937e-05  1.1058030939795408e-06 7.0972169543310572e-07 5.6611007814816581e-05  5.8026229627418308e-06 9.6164546984099486e-06 2.4076772232342265e-05  3.0293515690744709e-06 2.3918321455157767e-06 4.6324448848822841e-05  4.9473068922303617e-06 6.8112919372497843e-06 7.2424771147970834e-05  -7.6611608094168248e-07 -1.2181948479338783e-05 -2.8291379478413222e-05  -3.4222769691708855e-06 -7.4692392290060464e-06 -6.8561539200773504e-05  2.8024360472275741e-06 9.8869493420530910e-06 4.1853515520625233e-05  -4.7000991994113591e-07 -4.8059847804903318e-06 -5.4390114797199808e-05  4.2185119470240529e-06 -1.8089986704082957e-06 -5.9477484632301066e-05  3.4582476869797323e-06 -1.3513972219250503e-06 -2.4687419127226641e-05  1.0720287121839732e-05 2.4263308742536122e-06 -1.2879858847418024e-05  1.2477245794670009e-05 2.1831850661500883e-06 1.0679083783135414e-05  5.6168676068248025e-06 4.3021371924231413e-06 6.1808977895118033e-05  6.3725314496151886e-06 1.3467068695028962e-06 4.7024377438942116e-05  2.2524192256063506e-06 1.1591328314082179e-05 3.1567642351258228e-05  2.6286239610010877e-06 -6.8898308935884895e-07 3.8918085546869416e-05  -5.4580286271753196e-06 -1.2366030962058160e-05 -2.4203126313470421e-05  -9.6820869412803348e-06 -6.6850307193637190e-07 -3.4255755750770474e-05  3.7888269456517612e-06 8.2436697204845264e-06 6.3259603963008930e-05  -2.5332069805094176e-07 1.3620227115057601e-05 1.6626487359578875e-05  -1.6002524311767454e-06 -8.2869838052240911e-06 -4.8333176913767137e-05  -1.3983296348464729e-05 -2.7602293646229839e-06 1.8088448771164436e-05  -7.2904064600836054e-06 -1.0429491564017755e-05 -2.4820609753053319e-05  -1.0430209092503803e-05 -1.1030957461922225e-05 -4.6927926646629691e-06  9.6629406301281820e-06 9.4006252094249214e-06 2.3511411486873620e-05  4.1488148061981072e-06 -1.5238067665327995e-05 -8.7211839553270335e-06  5.6977292303423453e-06 -1.2545588648078443e-05 -1.8243626660159543e-05  3.5564394383796093e-06 8.5120845043556928e-06 5.1882815255445775e-05  5.1690109821726450e-06 9.4149297638011940e-06 7.5081680208101428e-05  4.4079550834350283e-06 6.6576013540023641e-06 5.2869017058909927e-05  -3.1996938980251096e-06 -1.3628943465282562e-05 5.2454006883861544e-06  -1.1528352703558111e-06 1.2835348659321419e-05 -1.3227031760095671e-05  -6.9396249830664490e-06 1.1071545835730663e-06 -4.3740757478392135e-05  -1.3976542608161310e-05 -5.5069557689021075e-06 -1.4463046942246287e-05  -4.7215209376173850e-06 -5.1302901139376314e-06 -5.5148568948476434e-05  1.1625143652702092e-05 8.0459551182160541e-06 -1.9519819829569518e-06  -1.1873294609486525e-06 -1.1682620460054838e-06 -3.5671513813177502e-05  -9.2841519125014971e-07 1.3275420622690464e-06 6.0959075501364787e-05  5.7568880843342971e-06 -4.4724631011031075e-06 -4.3551913354766124e-05  1.4707417692664458e-06 9.6094963868206948e-06 4.7439394301682123e-05  -4.1987270887924257e-06 -8.4329400916603639e-06 -5.8880903341053231e-05  -2.9353818311344908e-06 -1.4028724122416597e-05 -2.2207148609360097e-05  8.0921848746352266e-06 -2.5860352973364901e-06 4.7518198002052466e-05  -1.0061579045066869e-05 9.4935856001621868e-06 2.3561552669896945e-05  -4.4717092728321494e-06 -8.8925646310024356e-06 -6.6533456685474886e-05  -9.5349268683014959e-06 4.7287082164921383e-08 -4.5640073859609858e-05  1.5117042428426388e-05 -3.5167741537277750e-06 2.2770332872733347e-06  6.4727786365538843e-06 1.2283828838605666e-05 -2.2240745832417710e-06  3.8426304790800620e-06 1.0305578603258793e-05 1.5756180676118350e-05  -1.1225228029437746e-05 -7.2097782585185693e-06 -2.7015741629115076e-06  -3.1225091713453350e-06 -8.5680554620224089e-06 -6.2643634116644369e-05  2.2401097442813819e-06 3.4392220618201273e-06 5.7597250501067993e-05  5.5132560127024422e-06 7.4495738470453378e-06 6.5523676222538986e-05  2.0119010179328238e-06 -1.1466214005504159e-05 -2.3669830866224387e-05  -1.4090210705055018e-05 3.9280122348196107e-06 -3.1442697499111204e-05  1.4594499017289523e-06 1.2193970125526940e-05 4.7005200272300161e-06  8.0326525089637789e-06 5.5688850432122819e-06 6.7100169919164911e-05  5.7278542029910289e-06 7.0005779168070711e-06 6.5772894040565870e-05  -3.2812079585472398e-07 -1.1162272206702070e-05 -4.1528657255794291e-05  1.1746969660557376e-05 1.3627671785992864e-05 6.6035689107100159e-06  -7.0504180259411951e-08 3.2053517762389330e-07 -3.4259149999563692e-06  4.1774340983386953e-06 4.8287370038986534e-06 -3.0306866757805367e-06  -7.0919486331940759e-06 -2.0973565972830297e-06 -3.0711787783584434e-06  7.6516594522720211e-07 -6.8960447170534436e-06 -2.5411160948993429e-05  -5.2685360220578448e-06 1.5800857320790867e-06 -2.0418336455359653e-05  4.0261597996943562e-06 4.4019123249179004e-06 4.4318011180246926e-05  6.2084997263727148e-06 -1.3816559383067094e-06 -2.8286253488335392e-06  -1.7199832166602810e-07 -4.7601759395729490e-06 2.8530104587543856e-05  -2.0432728580809975e-06 5.1115889440813414e-06 2.5193683457628136e-05  1.3884826156924510e-07 -3.5671115803309580e-06 -4.1374119680579277e-05  -4.4175404747418888e-06 -7.6298294877067483e-06 -4.2180686309658362e-05  2.5836343560822751e-06 6.1978513372617132e-06 3.0944051293953548e-05  -6.7405713602914469e-07 6.2229295113110146e-06 1.9591778223100018e-06  1.2485103462767945e-06 4.2592532708208327e-06 5.4428117336873983e-05  -7.3972851510675927e-07 4.8178995711643800e-07 -3.5474015123395767e-05  -4.0036065655448557e-06 -4.9671935538310938e-06 -5.3504918650258621e-05  4.3796999835451362e-06 -3.1548120114528440e-06 1.8038003127369395e-05  6.5157386606494678e-06 5.0670704335879213e-06 2.2168266031166912e-05  -6.3200828618509541e-06 -3.8086675372626640e-06 -3.6587577987870774e-05  -2.7551500290881056e-06 -7.9753651511577313e-06 -5.3817629178087583e-05  -2.9650831361606377e-06 -1.0693291717367590e-05 -2.4939720996684312e-05  -4.1516522066272093e-06 -2.4450495695272408e-06 3.7300080541831151e-05  -5.8614441985557764e-06 -8.4646130087975730e-06 -4.8544890987471717e-07  3.0969475386439744e-06 -6.5973931331046316e-06 -4.2441886465259503e-05  -1.0963037150171655e-05 4.0373562518455408e-06 5.2433786173003489e-06  3.6883829238315074e-06 7.5787751782195183e-07 4.9932009832615105e-05  8.1565167429976715e-06 1.5064631205963336e-06 -2.7050091359107420e-05  -5.2052025488166491e-06 2.3550552378681235e-06 3.4852583781396072e-05  -6.3400139085134937e-06 9.8248839636467547e-06 1.0066567935759283e-05  8.2751036093376210e-06 1.5488351393721240e-06 3.8566380890370361e-05  2.1461531646900708e-06 6.8175446562968526e-06 5.0814994751707193e-05  3.5599757506796924e-06 9.8678907556508741e-06 2.4302725371351081e-05  2.4931426130770806e-06 9.5442283068518873e-06 -2.3568971967421745e-05  -4.3997283718253532e-06 5.3059629597136300e-06 -3.2536689495224148e-05  6.8864396315099843e-06 -9.4278994235130861e-06 -8.9288070000497081e-06  6.3380963985005050e-07 9.3041144497789770e-06 3.9045027694506583e-05  2.4124604279115492e-06 -1.0591054276857871e-05 6.4772785958025165e-06  4.7965861898494179e-06 7.4799655278915966e-06 5.3402937166687130e-05  -8.2378929944858769e-06 -7.6771222236540623e-06 -3.0956387712979445e-05  -1.9810933749130243e-06 -5.4819282997617446e-06 -2.1425788971437907e-05  -5.8739424100068234e-07 1.3777965436088441e-06 2.8358514577322090e-05  </DataArray> 
</PointData> 
</Piece>
</UnstructuredGrid>
</VTKFile>