<?xml version="1.0"?>
<VTKFile type="UnstructuredGrid"  version="0.1"  >
<UnstructuredGrid>
<Piece  NumberOfPoints="201" NumberOfCells="657">
<Points>
<DataArray  type="Float64"  NumberOfComponents="3"  format="ascii">0.0425039451259549 -0.03521825267382564 7249.755247442339  -0.003239129436851078 0.006394325886026261 -7249.755715042728  2321.977850711786 0.005140402398105219 -6894.912616651943  4416.625078649255 -0.03612377727791288 -5865.222588331102  6078.971527514601 -0.005506539462464185 -4261.260386130045  7146.325728943432 -0.007326820640624235 -2240.294950757184  7514.157240132442 0.01215452401807426 0.07367931180704582  7146.354877611428 -0.02309764290847881 2240.370849223948  6079.055113223467 0.002254359145484845 4261.321024477958  4416.721137383593 0.009841794219649582 5865.162717091612  2321.963307949502 0.01657571424106845 6894.88901008487  2942.015521803368 -373.0107117333198 -6303.527486174851  2922.784824358319 289.7635015236714 6459.978345611874  7152.844035734556 -332.1025311698111 -1074.788699605587  5150.173538950791 -362.3304847400467 4834.38667154104  6505.915862715444 335.8891228013853 3048.650561889362  6478.85934750772 335.8861196374991 -3101.721916942935  3285.028527581529 333.8783065683086 -6220.471168832589  1131.957528919019 -333.8910106765098 6895.386838482797  5116.615923247613 -333.8813298325966 -4936.562123492009  3562.34887243121 -654.5175895671157 -5102.721720600739  5292.997793310841 -641.5384999370344 -3514.394970937681  3630.512188987867 -915.8925332442495 -3376.523970443591  5115.072788241463 -859.8669915008201 -1662.684676797539  3210.692538167626 -1089.15099320295 -1412.796467008427  4570.835955943665 -978.2451490306153 357.3532161318667  2401.620798654874 -1163.038394519594 644.853807319712  3482.678091987707 -1011.52458700904 2445.859668619032  1254.770377162401 -1132.460545938078 2601.337020341924  2228.423274424974 -925.0550451905046 4296.623316588903  -86.55859076489104 -993.2269907040037 4305.368979257279  5339.309052416734 -795.6517844051042 2063.54399917041  5116.698060878221 333.8982433759289 4936.588854401006  5185.590412385453 645.789983317464 3634.908725647425  6279.691182420475 618.9219585403125 1645.162488084551  833.3265333381446 -739.0249667833805 5757.043379062316  3051.607643252815 -648.2697426967019 5427.804175146234  3561.892507685655 617.2518860623428 5260.386795132485  3433.376955172406 901.7940267012385 3685.754288582455  7166.568049506317 -324.0107150666681 1074.663025319654  6320.284901702433 -668.8884665394299 124.4966343308932  6520.385276437061 -336.196931258437 -3018.630153399796  1131.992171467913 333.8646566887023 -6895.417642037393  5065.640346034059 325.4962002518848 -5004.189509825751  5145.781702947025 642.3341268645771 -3707.783774445024  1558.123481584887 -1098.933307706491 -2929.626861073785  -1090.199067600657 -1145.807398487818 2462.695927841551  1519.835478866048 -671.1923689580708 -5910.67995283277  6236.853302694463 626.2897751145439 -1700.111288993613  4665.451023714246 903.525147122521 -2046.959683422233  3312.556761594182 879.4665505888547 -3965.085911855052  2616.145504971095 1093.713276510373 -2207.463016417349  1155.631107751261 1027.471977851567 -3859.134328596966  338.3728710610007 1183.305528232042 -2003.447108568487  -1184.767515649566 1056.874452987243 -3562.55353775218  -1955.304723944914 1162.339842999924 -1510.913737987503  -3445.011775790472 993.8627304520386 -2730.34221882152  -376.1033845376244 1230.275559815259 133.8395537391017  -2401.493939228296 -955.0646336505376 3969.731976819207  -3317.69770600712 -1055.531539496823 1965.542626974928  -4045.159533046383 1032.60154785871 -737.8734425780414  -5341.719168635184 808.7996838830331 -1872.018756925307  -5689.972864537185 807.0429381270941 167.5003481222483  -6672.71000739096 533.0616760558327 -1169.867396552708  -6763.996869771293 506.0106165965825 1091.492532985313  -5927.769085481362 505.3049444741981 -3331.173893308047  -5471.298851836988 747.0185802201416 2349.595336565339  -7058.061116295153 221.1152353446067 -2124.193551460033  -6248.225610743139 416.0874705882886 3207.102058339611  -6007.773627633119 141.950337178974 -4274.4022609494  -6746.385695529093 -160.6126949627576 -3050.852974273474  -4649.028855802369 626.7288438633869 4354.116764084099  -1038.113542935627 -512.4676978822152 6522.886519449734  -4529.42240320135 -817.4038963073854 3237.600496227146  -5398.723240105952 -217.5436715421718 -4879.30529176764  -5833.605005010145 -510.3016117223544 -3457.257152712628  -7219.881745577643 140.3632241099407 1833.145781150453  -2513.252669842835 823.8696462857029 -4830.139908766165  -5140.86601309944 267.8450836930282 5049.752197000032  1616.821559399498 832.4844505860621 5126.781562138067  -6957.280560000065 -418.1244290871784 -1228.922552752446  -4373.914359411518 86.91418677635937 -5873.10793449293  -3408.171269303562 477.0818819470143 5826.018855331233  -4203.945016687408 -548.8749580815387 -5076.913139726647  -4403.196360217744 -816.3154735147474 -3404.902815129405  -3711.289095481133 918.7363064710377 3266.104518989868  -1895.849492272691 -1190.002293282808 466.8845848454615  -3588.745638267012 80.39493858198686 6352.147729026023  -5302.808077266343 -116.1401542713805 5091.326204451296  -2541.550216312831 -818.5943546511588 -4847.230264620235  -2550.78748096312 -1042.281479622366 -3002.877320008139  -2189.485021959532 -518.9995017536517 -6233.703028172694  3813.147049497261 1062.677514919294 -204.684263398825  -5126.562956637596 -876.4858446257948 1285.805180079916  -6170.765302887185 -592.7871008572594 2249.289040781971  1346.822676322571 1070.248274230625 3365.341345888325  -486.1259588922102 965.8109547729925 4492.48113082774  -168.3473178857947 728.7678636372227 5855.231075917576  -2035.696740886797 308.2643079890025 6741.315956752912  -3395.690822633865 -668.9117129824709 5143.97724472426  1772.641018179794 813.8688148371787 -5181.517184899225  -4214.777082286242 -986.0059095647895 -1583.239669361223  -556.6300261574884 624.8861119754358 -6234.161027644881  -1233.207337309774 268.1418845636769 -6977.122007812395  -836.9422986263435 1151.50102736606 2462.357948929885  -1587.690588510772 -189.8437019069499 6998.44681431881  -543.4080499776469 -1011.167872211766 -4125.216271561292  -3430.435598422247 -305.0188535010341 6198.198950082393  -5289.153263517291 -490.8837317149852 4272.72490571608  -6583.722235524831 -236.1028003464198 3209.503697771586  -7203.738541561305 -306.4451545129732 1017.29695315077  -7481.764422068595 -39.86454506611746 -629.7581784420279  -2886.556123518916 531.1002885128964 -5926.949012330088  -4378.228689065995 587.3988887713344 -4783.085781651082  -639.6687871576218 -1160.202976866959 -2373.415304150415  -255.7633862755845 912.308623371685 -4882.106775964561  2999.034000187286 1084.349200090653 1894.061126365939  6476.7050491188 -321.3368523359345 3158.473550998237  375.5139931224123 -350.3412857062804 -6944.142122368125  1189.044574906029 -1201.956295166677 -1117.227570314403  -2289.151130706393 789.2008120113916 5124.946766452189  7183.374011330225 311.3954194495219 -1097.702256980783  4803.761949854161 895.3489587762047 1865.533189399983  5666.290271508533 811.8995278494831 -82.85803723389648  -5739.211654592014 -734.5362057026327 -1833.552217382244  -2492.159026447262 1159.182657482875 564.6766795852199  -4179.943272069506 1000.762657761313 1326.733734034738  -407.7736357460219 -755.4745457849525 -5725.965351472803  -1751.158701431011 -138.1002323759695 -7003.73230424507  -3691.48502152298 -221.6364023724711 -6180.030298499337  1737.837070001148 1197.393099013292 -370.5827185142137  203.6426496179763 -1224.039371482565 806.1447614524612  4151.102644203797 -780.6951105765021 3945.373015492442  7196.097237905012 315.3412513048645 974.298261903789  3286.935752866124 -331.4540087556528 6223.945606556543  -6357.408000279633 -658.9460965074763 179.0531381559362  -1345.637601961892 -815.0747372579439 5293.741099131749  3661.950219540499 598.4798998184147 -5271.170665367043  -6437.965273494002 98.6680314743578 3693.624707948074  1687.897862826405 -919.3556473641531 -4559.962406631889  1840.945028970117 593.753143251662 6107.746797901318  1071.620773559512 1192.045674302855 1524.535137223116  -4675.455099813262 774.5883037320351 -3403.741419424603  6285.703142094761 -596.0894576435584 -1895.009041621709  -114.9964669006912 321.7758790183577 6999.845166596033  5693.204164933152 -580.1253395511093 3292.688247312751  -7296.040853869752 294.9470160236709 -164.8679070797906  -3887.273439777035 -1056.07011029419 69.95778296932505  -2374.334152190725 -1151.829524373051 -1202.057857936321  6742.539511448551 546.3843934089452 -50.43040250309939  -1677.638611444759 609.1760467316146 6099.440936297771  2087.533418515752 553.2812090188902 -6164.493362039563  -2533.376252015805 90.91380385333511 -6804.630263826241  -2749.70675940321 1079.165964834871 2304.541418529843  6392.518166962605 -554.4813867214725 1994.071347501101  -512.4154719259527 -1223.05343229826 -728.425535083584  -4819.334905456964 321.6990061876255 -5234.022480473647  -3293.640740989075 273.4020870780301 -6316.822966568129  -2102.754041499724 992.8958127666893 3801.935716343466  -5286.587992620433 -875.5549777023144 -405.6973882708585  -0.03159426372446286 0.001540177835824751 0.0214883843816935  -2398.720669091248 -482.2642089442466 201.0307448541293  3626.644225724626 188.1887845945437 -33.16744801570513  -1445.027324005238 506.8542086103289 1598.809152353267  2703.412753942332 -359.457194629948 1454.427806600215  -1761.117398491509 52.64022221559937 -3230.924000751095  -3729.99001542613 95.78882333985717 2.680061723657309  712.7486714545361 573.2330280517695 -1388.365703663252  2519.382669997412 -282.6950680199805 -2173.884740382789  -1959.629649726804 -53.72920838712916 3133.686246272584  1879.238915017585 426.798748730779 2526.898388614172  -693.9885928314641 -486.9848276971338 -2744.990052730039  620.8522239547374 -702.8062455356317 13.44250289805056  1496.0951367370
[...]
<PointData  Vectors="Forcing"> 
<DataArray  type="Float64"  Name="Forcing"  NumberOfComponents="3" format="ascii">-6.7448559380847825e-06 -9.4216515572227428e-06 1.1061176005679234e-04  -5.8018639086524943e-06 -5.2649981499916667e-06 -1.0611816360366099e-04  3.8085394168098510e-05 4.9614249505335085e-06 -1.0078743988040301e-04  6.7251549049187270e-05 1.6017868282211951e-05 -8.0783046041216482e-05  1.0360300287375887e-04 -6.0395565941802330e-06 -7.1687785433287508e-05  1.0685775981443507e-04 2.6965609579986342e-05 -3.1348603555812010e-05  1.0811356074746834e-04 -8.6004330838595010e-06 3.8804794934278537e-06  1.0727182248537445e-04 -2.8672537797361836e-05 3.6133945282520514e-05  9.4905672874245661e-05 6.0434452726283777e-06 6.3965910466423067e-05  6.9969766408416311e-05 -3.8175513065494656e-08 8.7783399474157945e-05  3.6169246584349821e-05 3.4809731033771486e-05 1.0523964817013837e-04  4.7248162976421034e-05 1.2109920775078009e-04 -9.3388420533898795e-05  4.3212844723310593e-05 -1.1257294441668107e-04 8.8418816117153925e-05  1.1779283499132028e-04 9.8417936710355443e-05 -1.9726636085055546e-05  8.1640628435067640e-05 1.2290822673638983e-04 6.4662481220976436e-05  1.0587981043616920e-04 -1.0638218478669850e-04 4.2904505513639840e-05  9.7420786111120778e-05 -1.2556852237391409e-04 -3.8462531740601778e-05  5.0803025638504782e-05 -1.0805264133190464e-04 -8.5450443580924776e-05  1.7427466713370029e-05 1.0604769013241432e-04 1.0331171956885390e-04  7.7957911336750340e-05 1.2777218339012872e-04 -6.8440216255081729e-05  5.8537610386208644e-05 2.0377562492729370e-04 -7.7845277638678308e-05  8.1424411685360388e-05 2.3575562664261831e-04 -5.2422909673590748e-05  5.8713350658291451e-05 2.9649264684474853e-04 -5.6778655415442816e-05  8.5386587823544477e-05 2.4764027196312426e-04 -3.0270777242849081e-05  4.9836896750505018e-05 3.7619929343667792e-04 -2.0606116643330891e-05  7.3082905380586830e-05 3.3415073084124973e-04 2.4212134544779795e-06  3.3537108022979492e-05 3.9534231695384167e-04 8.1441431451008636e-06  5.8746106273117012e-05 3.0941354123060870e-04 3.7267775077769646e-05  1.9221146836241043e-05 3.7618987070223582e-04 3.8337749521614406e-05  3.9373179628858931e-05 2.4019645954675018e-04 7.6569679185560228e-05  -3.4209841250727049e-07 3.5932550423920103e-04 6.2439507538226171e-05  8.4705031540626525e-05 2.8975545469834294e-04 2.9944063225293920e-05  7.3756288172832524e-05 -1.3512366456832630e-04 6.8651576051982865e-05  8.3120309928852714e-05 -2.1453851089612173e-04 5.6425165615110807e-05  9.5209744754022588e-05 -1.9856541452090135e-04 1.8902717435636008e-05  1.5096286644289667e-05 2.1382160064426067e-04 8.8050699831330093e-05  4.6298932399071942e-05 2.2366477400432376e-04 7.3866257541858540e-05  5.2092107308601473e-05 -2.1814889439307738e-04 7.8632530770602059e-05  4.7041360873860063e-05 -3.1915351661240728e-04 5.6444360375381985e-05  1.0111880697300177e-04 9.2924038921933175e-05 1.4271381869989285e-05  1.0046431203759618e-04 2.2291426518060965e-04 9.2228687409453150e-07  9.5171724010604779e-05 1.0715679033404075e-04 -3.8348810651698586e-05  1.9559014231255043e-05 -1.3120675874851630e-04 -9.8890545790133110e-05  7.7202222149465311e-05 -1.0901819910465304e-04 -7.2211979626143826e-05  8.6878497696157538e-05 -1.7805122731673101e-04 -6.1548515046395088e-05  2.3034475431099278e-05 3.2040895909656231e-04 -4.3508177007378384e-05  -2.0429293466517804e-05 3.8306128070426080e-04 3.5391852164855066e-05  2.2952999833302844e-05 2.3038203889291873e-04 -8.4212897358546505e-05  9.7740294110787546e-05 -1.9164413198748329e-04 -2.3402065694655676e-05  6.8468032300822847e-05 -2.9097130614518803e-04 -3.0895414846037115e-05  5.2392653041363128e-05 -3.0591440255591825e-04 -5.8912433051386994e-05  3.2058839131995745e-05 -3.8014149782705434e-04 -2.9871911970809517e-05  1.8915648731365347e-05 -3.3813540182082931e-04 -5.4292349943052022e-05  4.7739705861783819e-06 -3.6762572358786238e-04 -2.7943623041224918e-05  -1.7923564280036543e-05 -3.6241255279007955e-04 -5.4808320842083317e-05  -3.3695844120665228e-05 -3.1274787475942949e-04 -2.6988480678659365e-05  -5.4749701995771877e-05 -3.4095791949708060e-04 -3.8296104402615853e-05  -6.0382180439980796e-06 -4.0685693776081874e-04 9.8192094402358736e-07  -4.0060018993920151e-05 2.9064497099358605e-04 6.4299521209762730e-05  -6.1579253785841329e-05 2.7261840190867211e-04 3.2332561400791816e-05  -6.1230617710258793e-05 -3.5063623957087739e-04 -1.0610579491855643e-05  -8.2279305123633651e-05 -2.5854790847277241e-04 -2.7565631929489383e-05  -1.0126182108700678e-04 -1.9436722625254803e-04 -6.3401437089882183e-08  -1.0162699620256275e-04 -1.9312693080920186e-04 -1.9019196788620903e-05  -1.0550447716962452e-04 -1.6374323132675749e-04 1.4288282952319187e-05  -9.1936507789511755e-05 -1.4425903962226482e-04 -4.8753859613790881e-05  -8.6919307765674246e-05 -1.9205518874682354e-04 3.6709743195823720e-05  -1.1190155499068009e-04 -6.1299345236737172e-05 -3.1242943468570335e-05  -1.0156655086382611e-04 -1.1569882359091383e-04 4.8512240605193266e-05  -9.3428502802315951e-05 -2.2931061383218493e-05 -6.8882705030508362e-05  -9.8916909510319935e-05 4.7400941340969963e-05 -4.5355938088606552e-05  -6.4970882737531017e-05 -2.5328787517817043e-04 5.8969151996607443e-05  -1.2424892762487372e-05 1.6898293437442321e-04 9.8069175511099414e-05  -7.4380965956956732e-05 2.6530051805487704e-04 4.8818208355091853e-05  -7.9692187434721846e-05 8.0000108652771506e-05 -7.1145199700812768e-05  -9.1195763251960437e-05 1.5584130023993194e-04 -4.8386416901071493e-05  -1.0894988888751035e-04 -2.1540589157778665e-05 2.7710302164454608e-05  -3.8680972946485167e-05 -2.6210125084701405e-04 -7.4173198854580503e-05  -8.5157087248331550e-05 -9.0776478423948407e-05 8.5466627732101703e-05  2.2186113477495251e-05 -2.7212626082413250e-04 7.1671732440098954e-05  -1.0265578724324366e-04 1.3516602917277741e-04 -1.9170053269797767e-05  -6.5149646500042380e-05 -1.1405815150961127e-05 -8.5904475981240245e-05  -5.0580092077228295e-05 -1.3524154613906729e-04 8.5290842046719168e-05  -7.2127046132395507e-05 1.5304852153990225e-04 -7.7003257372242585e-05  -6.7786976474458114e-05 2.7413289074582612e-04 -4.1320356171254563e-05  -5.2650536897456058e-05 -2.9615536702651637e-04 4.9807358496453727e-05  -2.8647863895809752e-05 3.8994954999847185e-04 5.7784684160135259e-06  -5.0395131183545927e-05 -3.1447786733122075e-05 8.7964775907014596e-05  -8.2502781689648466e-05 2.3252550089600864e-05 7.8198559235994846e-05  -4.0347448838555066e-05 2.8699162967979453e-04 -6.9892060975241296e-05  -4.4685486486458211e-05 2.4985168410492651e-04 -5.3299534970533793e-05  -3.5436322660574411e-05 1.6514862128528458e-04 -8.5645154564279260e-05  5.7760661104936646e-05 -3.3182451967871547e-04 -6.9363931034996565e-06  -7.6788628052779770e-05 2.9445515547350733e-04 1.4558934644970761e-05  -1.0041464210584463e-04 1.5098820966300791e-04 3.3332891410515076e-05  1.9688780496300045e-05 -2.8915886700938429e-04 5.2268301657779168e-05  -8.8036459803827092e-06 -3.3052178764170616e-04 6.2313516912107679e-05  -3.2180062582981513e-06 -2.0380454848722976e-04 8.7623841278700970e-05  -3.3913173041061879e-05 -8.9061207124721583e-05 1.0866639757355794e-04  -5.1012203442663024e-05 2.1038766300025661e-04 7.2471125918960051e-05  2.5996960674732371e-05 -2.6748851823588321e-04 -7.2121636979019440e-05  -6.4056531675251430e-05 2.9321408774634109e-04 -1.9386218897889320e-05  -8.3743185588428835e-06 -1.5672816864732350e-04 -1.0943402488187844e-04  -1.8852378427541312e-05 -1.2257284836810259e-04 -1.0271551554468264e-04  -1.3044800757401031e-05 -3.5237716068404172e-04 3.8528830372302840e-05  -2.5158286449423892e-05 2.3752499150850968e-05 9.9619100238018362e-05  -7.5484892503459244e-06 3.4637525169890039e-04 -5.8986520352760996e-05  -4.6626404067657464e-05 9.5185038207749130e-05 8.2923435388875308e-05  -7.9503124044641367e-05 1.4168612844009038e-04 5.6688070375435883e-05  -1.1526622279861329e-04 6.1643700236491030e-05 5.4544064401321134e-05  -1.1827544528268693e-04 9.9841322125039216e-05 1.3906004972247027e-05  -1.1467806685806558e-04 2.8483963588001408e-05 -6.9838817701581604e-06  -4.4930752432583977e-05 -1.6643091299451310e-04 -8.5794849634813906e-05  -6.7433184866927948e-05 -2.2105978199718008e-04 -7.1546937371606018e-05  -1.3141321319018422e-05 3.8653878691956051e-04 -3.2036535615247009e-05  -6.0878220610717935e-07 -2.8247196597470492e-04 -7.1198962804570464e-05  4.7624459286751673e-05 -3.3372609847432983e-04 3.0471239866232410e-05  8.7573280585619744e-05 1.1123334110817468e-04 4.5435482226038135e-05  8.1243803735254378e-06 1.1886939522257278e-04 -1.0074312356518731e-04  1.9332914897900231e-05 4.3157105837769152e-04 -1.4198065350491119e-05  -2.9703367848459318e-05 -2.6189231398003436e-04 7.0516280407490752e-05  1.0246232825742207e-04 -1.0087648797082694e-04 -1.3671446217156054e-05  7.0810739615615099e-05 -2.9586458473524147e-04 2.6951485895935171e-05  9.3229143963536443e-05 -2.4924316379684063e-04 -7.4454111722054082e-06  -8.0722328621480509e-05 2.5616066447935301e-04 -2.5518707573950934e-05  -3.5854289809215830e-05 -3.5791123975035963e-04 9.1611183976196291e-06  -5.9598203433449185e-05 -3.1516684381860697e-04 1.9371182836922622e-05  -5.1556085093856826e-06 2.4766722606127037e-04 -8.4416152364550135e-05  -3.1884363620266054e-05 4.7926563930357003e-05 -1.0594582004591930e-04  -6.8595844597584704e-05 7.0239827920911017e-05 -1.0936282534921286e-04  2.5441580749990974e-05 -4.0966953061455868e-04 -4.5880584857320629e-06  -1.5951676528763153e-06 4.0899269842288312e-04 9.3299168157557515e-06  6.7143318419810299e-05 2.1290383665687368e-04 6.3365906799003007e-05  1.0820145390765205e-04 -1.0889642978940920e-04 1.5125581117718932e-05  5.0966743459535966e-05 1.0505251468793718e-04 8.9412425097406024e-05  -9.6395413247541155e-05 2.1196994816112148e-04 3.6821215069553305e-06  -2.4707938419174008e-05 2.0979422095517090e-04 8.4151149279180381e-05  5.7831249534491780e-05 -1.9854061141613756e-04 -7.8105087348071835e-05  -9.4252107876948468e-05 -2.5233036957698699e-05 5.2307024587213314e-05  2.7593310703452148e-05 2.4263610925816321e-04 -7.6188794347527517e-05  2.9429235829913864e-05 -1.8626504213699473e-04 8.6954590259826647e-05  1.6478009415071628e-05 -4.0560978723828750e-04 2.1816334344888844e-05  -7.1489955886228670e-05 -2.7820923474301118e-04 -4.3218246292475643e-05  9.4828193689883570e-05 2.1318597368269902e-04 -3.4182427096974167e-05  -6.8201308427851098e-06 -1.1016594573668365e-04 1.0556646496026401e-04  8.2381907551258750e-05 1.8945852710564615e-04 4.3265541401271322e-05  -1.0612234457586074e-04 -1.0701162433612313e-04 -1.4417602824867954e-06  -6.2801249159323027e-05 3.4445294577650532e-04 1.4146655891703248e-06  -3.6968217970420538e-05 3.6050222070752481e-04 -1.5147055608225111e-05  1.0776874625907854e-04 -1.8094793159085460e-04 -4.6683385135071153e-06  -2.8092682749727531e-05 -1.2285837826211355e-04 9.5780733803404590e-05  3.6353990551101242e-05 -2.0615506119716506e-04 -8.5809592841564852e-05  -3.0087264207883522e-05 8.4505807724418473e-06 -9.9549080769519116e-05  -3.7737849072438343e-05 -3.6532698300792492e-04 3.5979659564787229e-05  9.6648449746071291e-05 1.7268546993584076e-04 2.9886843611763005e-05  -6.5192743302993239e-06 4.1439089380631108e-04 -1.4399198142515244e-05  -7.5186561019345409e-05 -9.9510028527671031e-05 -7.6966691722438519e-05  -5.0774556587899453e-05 -8.0367359444443595e-05 -8.6716678937452822e-05  -2.8455471114088219e-05 -3.3231761458068078e-04 5.7668472235090453e-05  -7.8336191103833472e-05 3.1129555969885200e-04 -6.5671478271315850e-06  1.7253876523893911e-06 4.9572139773471239e-05 -2.5492191364368086e-06  -2.8617210158837111e-05 1.9256766870257247e-04 -4.8865436563120263e-08  3.9323901785396122e-05 -6.9903232551641692e-05 -3.5774968878591488e-06  -1.4128816353115272e-05 -2.2250018508732417e-04 1.4019969437752316e-05  3.2617385755946117e-05 1.5149082577179358e-04 1.6786413901872708e-05  -2.5704164929693454e-05 -4.2434583976738461e-05 -3.6120225518870776e-05  -4.7823677299545604e-05 -4.6887338668397756e-05 -2.5093649604416671e-06  8.4710356769290970e-06 -2.6225676254828042e-04 -9.7634030573148336e-06  3.0034816866927382e-05 1.3211914349238124e-04 -2.7961585634652892e-05  -2.4031122446744158e-05 4.3404698084260814e-05 3.4148489243910540e-05  2.0441691668916281e-05 -2.0425392332049021e-04 2.0778788913640317e-05  -7.6073630358187836e-06 1.7980069948804410e-04 -3.7001733882139101e-05  7.9684392039442035e-06 2.4805443125312321e-04 2.0863765414136494e-06  1.6819165984655741e-05 -1.0382958665086668e-04 -3.2208792940826221e-05  -5.8632639192615108e-06 1.9085591958436506e-04 3.2305032047018369e-05  1.8083462927116453e-05 6.6897393040980032e-05 4.0077484292659689e-05  -3.4986059574196203e-05 -2.0188267640229067e-04 -1.7238885552608670e-05  -4.7188588581675846e-05 1.2805220639158874e-04 -3.0253112044801083e-05  4.8423982075017676e-05 5.6771135866056012e-07 2.6581882184125069e-05  -6.8742386000625377e-06 -1.5492547229194452e-04 4.3377460422900606e-05  8.4408746035223146e-06 -3.3253727020821257e-04 6.1598477403039432e-06  4.0217391229180621e-05 -2.1154023035199575e-04 -2.0858455600268377e-05  4.5224027377491427e-05 -2.6650457951523624e-04 4.3544452854965282e-06  -4.4885374290086617e-05 -1.1413337509831867e-04 2.1981206805115342e-05  5.2177537474789791e-05 1.0786004422199003e-04 -5.4080395687097553e-06  -1.3511212862777465e-05 -2.2487258773529756e-04 -3.9909218768418345e-05  -5.3892167184394148e-05 1.1630106113678778e-04 1.5959817381755502e-05  5.3345827144173038e-05 -2.9745424792099449e-05 -2.5821495855477571e-05  3.8426643796814180e-05 2.7592399398751878e-04 -8.6406550031620929e-06  -5.0790970403297445e-05 -9.3635330503787689e-05 -2.7028661857933652e-05  1.0203205834500747e-05 9.7474189886839226e-05 -5.4762521616698065e-05  -1.7878037804142352e-05 3.2993424125886395e-04 -9.3329027888497820e-06  -1.8522081988350469e-05 3.4373751434303284e-04 8.7368367259229119e-06  2.2211939747068331e-05 3.0019951519723553e-04 2.6827465037828571e-05  -4.8300305143290622e-05 -2.5522761379190105e-04 1.6458719717625128e-05  1.8198729382510045e-05 2.8975248455462169e-04 -2.0701971920424056e-05  -1.0895438877049330e-05 -3.3331474998258458e-04 -7.8805642993236324e-06  -3.1808255459516663e-05 1.2972609399098937e-04 -4.7551108366980556e-05  5.1926952347889870e-05 -1.8305285590694824e-04 1.9927363995681104e-05  5.6609129933879490e-06 -1.3123502306412353e-04 -5.4525057928088179e-06  2.0632957183576813e-05 -6.4767511183919235e-05 -4.9394921124488183e-06  </DataArray> 
</PointData> 
</Piece>
</UnstructuredGrid>
</VTKFile>