<?xml version="1.0"?>
<VTKFile type="UnstructuredGrid"  version="0.1"  >
<UnstructuredGrid>
<Piece  NumberOfPoints="201" NumberOfCells="657">
<Points>
<DataArray  type="Float64"  NumberOfComponents="3"  format="ascii">-0.002295786926279418 0.000481786777418602 454.1772709695165  -0.0005938737209484163 -0.0003263486110618231 -454.1783989756037  850.3707771080772 0.0005981437805197 -431.9681074388451  1617.425082249752 0.0004037703072686642 -367.494397827256  2226.05848785072 -0.0008548487802358051 -267.041416334268  2616.764274884938 -0.0006957274259935163 -140.4052459950406  2751.381837430667 -0.0001411709680897337 0.0004434894548124531  2616.765054277742 -0.0002478635935285782 140.4053687495511  2226.058527121856 -0.0005778984980405389 267.0409871883915  1617.424603232105 0.0008122158234236374 367.4949421449821  850.3715476896236 0.0003841775926306258 431.9676827600566  1077.303078213591 -799.9024790219996 -394.898071624829  1070.299281763793 621.3382849572796 404.7066123851448  2618.893825809345 -712.1423505463077 -67.35605813211868  1885.727613901456 -777.0518669193049 302.9048266559867  2382.089111183253 720.2623068432544 191.0400592895672  2372.188593037465 720.2547166700543 -194.3709958194369  1202.934458185016 715.9774268974995 -389.7064250269949  414.5166676088987 -715.9566133335763 431.9578009819088  1873.515410163076 -716.0070396871281 -309.3108271916695  1304.100714930593 -1404.795116078416 -319.6288758403298  1937.558858278306 -1376.970979040632 -220.1655161482985  1328.518961058504 -1968.306282059495 -211.4506334257794  1871.837147034543 -1847.294556326363 -104.1409720586637  1174.495684903607 -2343.390656288738 -88.45325183798194  1672.350883157054 -2103.100227110698 22.3768492025198  878.4085591293235 -2503.64066833276 40.36823189083088  1274.170645283949 -2175.116833197628 153.1479407238215  458.9862163223659 -2437.325796892311 162.8446057598341  815.4563615938087 -1988.104664797232 269.0509573540251  -31.68526310081617 -2135.537666560926 269.5632719769636  1954.075296726445 -1708.778282983514 129.2534306083398  1873.518330657392 716.0080093795524 309.3111138135212  1898.205192023484 1386.052614181001 227.7108809408737  2298.704039785002 1328.218576603575 103.0730963615453  305.0592794313913 -1586.751575731161 360.5523630428046  1117.107285519621 -1391.467172653947 339.9791768948354  1303.973341101084 1324.677106161796 329.5133310003928  1256.392812585052 1937.882835310007 230.8120443308131  2623.909573070097 -694.7878447877672 67.34777460707143  2313.403673043 -1435.749629734569 7.799293326830155  2387.367001552219 -720.9056908979748 -189.1633412582283  414.5157104059589 715.9575923351229 -431.9576433509691  1854.873271134384 698.0437126235964 -313.5471941653142  1883.680611685855 1378.59314313397 -232.2798874125513  569.9842160958435 -2364.601512755451 -183.4072623305901  -398.7690775658212 -2466.277378605759 154.1631771364105  556.3658038993508 -1440.819617398193 -370.1962674461951  2282.997919039729 1344.05246796163 -106.5174885140444  1707.195312843164 1941.619486145049 -128.1997478562678  1212.246120247791 1889.606061448528 -248.3116714246038  957.0155983332309 2353.263649164686 -138.2028913607269  422.8168210461019 2209.698614466504 -241.6198361624046  123.7642194113136 2547.656471873186 -125.4070711898866  -433.4361229486116 2273.537819542533 -223.0392729316162  -715.1712098602393 2502.10352578144 -94.58114992923251  -1260.44610783741 2136.927819305465 -170.9638932088888  -137.5554529183905 2649.81920700441 8.375485265127102  -878.7404365218622 -2052.964335851017 248.5722099616355  -1213.729121863984 -2270.356054591351 123.0665084467486  -1479.892521933109 2220.72236613869 -46.20267856035665  -1954.939915025797 1737.141258691448 -117.2573375628234  -2082.374450161719 1733.300788904837 10.49308980893378  -2442.771833730663 1143.620924497767 -73.30158042214019  -2476.256012658751 1085.523400348884 68.39380188508621  -2170.187524974024 1083.924645413106 -208.7153907451805  -2002.537749260859 1603.90639064899 147.1830875218481  -2584.351411653856 474.0869967301143 -133.118288496981  -2287.658763402523 892.3486709332687 200.9564804787993  -2199.95678334713 304.3343946534194 -267.8521691926677  -2470.327779451962 -344.3149022312215 -191.1924250608833  -1701.879544617818 1345.069402171913 272.7569999251252  -380.0970074580978 -1099.41882941314 408.5841189971288  -1657.67075019188 -1755.769855510157 202.7780480320687  -1976.923602877439 -466.4091824561689 -305.7352779896114  -2135.697266381945 -1094.722500142311 -216.6139521322314  -2643.664392114792 300.8736048665725 114.8846267376731  -919.8182025100227 1769.718555894321 -302.4894645481784  -1882.467416870755 574.3636658728063 316.4100498854898  591.7503861347935 1788.209293387513 321.0595603425882  -2547.168174810969 -896.8157143161026 -77.00822513812425  -1601.748232161174 186.2828868162306 -367.9824126752417  -1247.886901638254 1023.425734681809 364.9687331366891  -1539.097865452971 -1177.619068846765 -318.0432193468982  -1611.46287633495 -1753.421590077866 -213.2559858245541  -1358.070866347132 1974.4759547203 204.5356071581619  -693.3785047506058 -2562.264704486942 29.22775191703183  -1314.260228281961 172.3190617664384 397.9789743347656  -1941.84469843217 -248.9620535914671 319.0279870931396  -930.1850352284143 -1758.390663603311 -303.5599568889269  -933.2007078386675 -2241.698829146126 -188.0138011992731  -801.6043686567741 -1113.455273262408 -390.4779359869968  1394.928881805714 2286.049615893614 -12.81519277986575  -1875.987587990338 -1883.286494746987 80.53389324804766  -2258.92801116636 -1271.921101971648 140.9256101537886  492.7125192490341 2302.332857260089 210.6912034724927  -177.8708152968184 2076.443707113308 281.2844261131605  -61.62296970465354 1564.60673787896 366.7053619045328  -745.4485252152174 661.0439846048343 422.321369117614  -1243.065544387834 -1435.835653166868 322.20227626098  648.7979997004937 1748.222410248426 -324.4910344947693  -1542.083701946477 -2119.966965426259 -99.14397254770169  -203.766110960213 1341.124508265346 -390.4689999590396  -451.5563238724877 575.025321186216 -437.0855955923188  -306.1347902429528 2478.610618043772 154.1385975696878  -581.4092303434895 -406.9981409010542 438.4347743692311  -198.8197706372587 -2174.389509976737 -258.2801981106953  -1256.195012501875 -654.0850287742206 388.3153803063362  -1936.442755169129 -1053.052923915639 267.6989085040706  -2410.721414960581 -506.1705032268133 201.1290672010909  -2637.588038340834 -657.1211451581685 63.75401323739413  -2739.547114634724 -85.47201114219773 -39.47056816588503  -1056.842954942712 1139.489202795432 -371.2677487973122  -1602.823178231213 1260.45146501129 -299.6299778830727  -233.9672101847636 -2497.455439706606 -148.5714458782082  -93.59935488444769 1960.513088158263 -305.7043280808634  1097.086787214619 2332.845282630854 118.5836269218717  2371.400471203896 -689.0560632037106 197.9167139897916  137.4958470988854 -751.3683991291643 -435.001906572862  434.87047838646 -2588.189910428824 -69.93274236802927  -837.8686523259404 1694.917507635498 320.9607686059501  2630.087312975389 667.6933440328276 -68.79226655730004  1757.817204696643 1923.989118479015 116.8364936800601  2073.666851858439 1743.798216007164 -5.192243457120575  -2100.593432682243 -1577.092364793499 -114.8576641998924  -911.5237621211198 2495.209414966678 35.3489572334444  -1529.302211090347 2151.896907871541 83.07661260312035  -149.2336863608307 -1622.192306201405 -358.5993582705983  -641.2528139952267 -296.0852354355746 -438.7698755931129  -1351.815174472153 -475.2077510257528 -387.1901044816136  635.5747187254552 2578.260337857239 -23.19721817244319  74.47530031887813 -2636.189006400185 50.45710562737278  1519.317725586797 -1676.560532645569 247.1169436482623  2634.736662850341 676.2351902725602 61.05640621304496  1203.609379441909 -710.8237177683915 389.9262267235348  -2327.0507325707 -1414.300104431851 11.21760695146493  -492.5108294221882 -1750.632377451487 331.5188174681952  1340.643824062791 1284.246126726613 -330.1927588991907  -2357.459119816256 211.5131943648341 231.4695883170254  617.6699124301646 -1975.866809889354 -285.5364995110319  674.0080695457641 1274.15554148414 382.5690017853659  391.9268353871955 2566.686494494553 95.42728501122883  -1711.201855241605 1663.479009956041 -213.1971652583289  2300.962030346379 -1279.086139408122 -118.7311432679476  -42.11169311116744 690.1069676722902 438.4963560334967  2084.149962295842 -1244.848654995295 206.2892103302692  -2671.359758386051 632.4533213388245 -10.33489727875039  -1422.064340341174 -2271.535260024969 4.380344181291189  -868.4387756684773 -2479.273678708973 -75.25190968693124  2468.271042871871 1172.293937292959 -3.1614297248252  -614.1829497832745 1307.221697399653 382.0443199369458  764.2770993039301 1187.120210161283 -386.1346248013509  -927.7459043594889 194.920138272581 -426.3085996200608  -1005.888610735836 2321.650561048027 144.2803549828377  2340.161743741971 -1189.644073169038 124.9390722672776  -187.3986131455069 -2633.994891308997 -45.5936831048944  -1764.682231080873 689.820537509807 -327.9343931940766  -1206.096662211973 586.2202069356916 -395.7452070309192  -769.3734903848325 2134.707609438682 238.0536701849616  -1934.578408374156 -1881.040226846301 -25.40990103487707  0.000827279535799168 -9.798998098612096e-05 -0.0001415020411036401  -877.4627285219108 -1038.201241169394 12.58073859715684  1326.846820570308 404.8830564521768 -2.076194500062002  -528.5814299177475 1091.247529232211 100.0616573650258  989.0034043598023 -773.5778891298363 91.03553475541466  -644.3538481732237 113.2317040585396 -202.2375164954017  -1364.679291653117 206.0704657070215 0.166925780840811  260.7207249985975 1234.340528113837 -86.88605938886469  921.7249721391852 -608.2711929349766 -136.0702450270684  -716.9820172037225 -115.5748410853122 196.1519428475212  687.5135073409842 918.4475490528555 158.1625390591209  -253.8769671726411 -1048.115511315199 -171.8032247372686  227.0746181862732 -1513.764077173686 0.8399
[...]
<PointData  Vectors="Velocity"> 
<DataArray  type="Float64"  Name="Velocity"  NumberOfComponents="3" format="ascii">-1.0286875387499871e-10 2.1591241557370293e-11 -7.6362076787191043e-09  -2.6647000414703465e-11 -1.4636599391869747e-11 7.5856955451913052e-09  2.5714426614547114e-08 2.6787105453008950e-11 6.3734194880302763e-09  4.5493291405979529e-08 1.8062620114741519e-11 3.6136438415361783e-09  5.6514303443361277e-08 -3.8294745037706721e-11 7.8506792331242491e-10  6.0861688369966573e-08 -3.1154644550103997e-11 -1.8113248804647030e-10  6.1890508516601672e-08 -6.3195617656575188e-12 1.9856948059997280e-11  6.0896573967728199e-08 -1.1105066028172621e-11 1.8664066984432929e-10  5.6516052302796529e-08 -2.5892722434542166e-11 -8.0427234700927067e-10  4.5471854261151625e-08 3.6359202217635577e-11 -3.5892861123142263e-09  2.5748916510653139e-08 1.7212991985554560e-11 -6.3924105559107452e-09  3.0800581013777574e-08 1.0778818196240972e-08 5.0610550521856403e-09  3.1224656300185061e-08 -8.4323845259697100e-09 -5.3845326048624429e-09  5.8647776172773742e-08 5.9872387811687727e-09 -1.2010547045571096e-10  4.8868089957782627e-08 8.7920338015992208e-09 -1.9270471801883649e-09  5.6335305245470157e-08 -6.7843567470831925e-09 -1.5522522773951535e-10  5.6243669022718166e-08 -6.7537054615057862e-09 2.0776303468735780e-10  3.4247042703822727e-08 -9.4619589101343992e-09 4.7482684966688793e-09  1.2415005511270160e-08 1.0394295593289898e-08 -6.8350736062145525e-09  4.8906680220603153e-08 8.1356168549278742e-09 2.0643701024220514e-09  3.3290638001307025e-08 1.7752281971762916e-08 3.1727522147731543e-09  4.5405983956683706e-08 1.4875227324864204e-08 1.0425752499071846e-09  2.9270879719755790e-08 2.3710426792592815e-08 1.6727787732334792e-09  3.9211756178406125e-08 1.9661798858460460e-08 4.3306901016575900e-10  2.3092744364847473e-08 2.8081188073333372e-08 6.5872022688280529e-10  3.3372160130655984e-08 2.3155028582930000e-08 -9.5114957479472754e-11  1.6545554229622755e-08 3.0868182532728859e-08 -3.3809139808331307e-10  2.6326324540716321e-08 2.5983288090951222e-08 -1.1330815553950217e-09  9.2358527555459955e-09 3.1487496636724555e-08 -1.6442416363176671e-09  1.8863178511014807e-08 2.5934456845101923e-08 -2.9080588884389495e-09  -7.0237880350037000e-10 2.8759582331615232e-08 -3.1986003596023036e-09  4.2105629707634807e-08 1.7939154247669680e-08 -4.8505365012640480e-10  4.9037492709251612e-08 -8.0921991829981789e-09 -2.0515069006788931e-09  4.4622440858753602e-08 -1.5131100173182537e-08 -1.1317079549259544e-09  5.0343819525369932e-08 -1.2559568362878582e-08 -1.0403121735538612e-10  7.9796579520297559e-09 2.2140667753199990e-08 -5.0140235938809533e-09  2.9351776355720719e-08 1.8216889862345508e-08 -3.8955230298668465e-09  3.3759895984630487e-08 -1.6785237496043793e-08 -3.3598896207933605e-09  2.8150654605636433e-08 -2.3761065166247201e-08 -2.0036185795419070e-09  5.8847270715386819e-08 5.8427976182994245e-09 1.3241414157428254e-10  4.9555649887123858e-08 1.3525148536089858e-08 2.0386292553250358e-11  5.6564062215973049e-08 6.7510270149919801e-09 1.9082180610004857e-10  1.2372039373366036e-08 -1.0350438670619571e-08 6.8421361807172790e-09  4.8728940273871527e-08 -8.0138782390411753e-09 2.1536418211019963e-09  4.4383117524763290e-08 -1.5084710386379180e-08 1.1915078094077901e-09  1.1712187871851589e-08 3.0535188795324129e-08 1.8613251840032914e-09  -8.1418020230161276e-09 3.1889808009556704e-08 -1.5520443015524541e-09  1.5048722547674277e-08 2.0004218785490331e-08 5.1304094802976250e-09  5.0054798907393689e-08 -1.2816182168482796e-08 1.3628039158059238e-10  3.5773614441935717e-08 -2.1445971776737464e-08 6.4921735134028792e-10  2.7799484018337170e-08 -2.3458957847053089e-08 2.2711781181724333e-09  1.9243254252439519e-08 -2.9156872356049095e-08 1.1937219809951122e-09  9.3267807937638831e-09 -2.9226591394792107e-08 2.6977258467296669e-09  2.2765178125416947e-09 -3.2928076720502358e-08 1.2512244863626754e-09  -9.3858233501790362e-09 -2.9895131118833762e-08 2.4631487247666078e-09  -1.3874043079992696e-08 -3.1378053885624323e-08 8.5016378108896660e-10  -2.6650880905521756e-08 -2.5673292190754064e-08 1.3111292423455704e-09  -2.7111425074834718e-09 -3.3900868364608023e-08 -6.0373517617725455e-11  -1.9872805475257391e-08 2.6361518040365444e-08 -2.5468595489488432e-09  -2.4459200627365906e-08 2.7132325336510697e-08 -9.2000619486973613e-10  -2.9418434782194847e-08 -2.5305014276322878e-08 2.7179260811048078e-10  -4.1703792219780314e-08 -1.8141538736064663e-08 3.8779872093443433e-10  -4.3232953154403501e-08 -1.7319979846447435e-08 -3.3368089022480157e-11  -5.3750727515112299e-08 -1.0241714522167746e-08 -2.8532487164708134e-11  -5.4530653187895273e-08 -9.5962739529699051e-09 -1.2604123949244183e-11  -5.1046977983166120e-08 -1.0930269938690924e-08 5.8025697727079409e-10  -4.3824902954637636e-08 -1.6645872012168106e-08 -4.6512392806008504e-10  -5.9446148117790806e-08 -4.0942578167831600e-09 -1.5753707434332957e-10  -5.4034674205241598e-08 -8.6298862649694209e-09 -4.0291743377974320e-10  -5.5696977782469199e-08 -3.1312915640059925e-09 8.5717213927568878e-10  -5.8775599462933745e-08 3.1738376926839328e-09 2.2454843998529847e-11  -4.1711428143230055e-08 -1.5553751810187247e-08 -1.9125688506002546e-09  -1.0991232627608075e-08 1.5689289036559211e-08 -6.2879004652665838e-09  -3.7217528990371924e-08 1.9975830364058971e-08 -1.2795684004644452e-09  -5.1750837343209666e-08 5.1291579119094717e-09 1.7295721311336773e-09  -5.0480524656124732e-08 1.1157255215561701e-08 6.6469085900917133e-10  -6.0534107154745040e-08 -2.5476288714773251e-09 2.0419121978223974e-10  -2.2456875527460774e-08 -2.3112205386597981e-08 3.3595265951095908e-09  -4.9713541657023374e-08 -6.4927945094190267e-09 -2.0416837545850219e-09  1.4772989314090119e-08 -2.4235915991516087e-08 -3.9839682694005916e-09  -5.6475344687234827e-08 7.7256170507612828e-09 -1.3115809702535300e-10  -4.4870845417994096e-08 -2.2551368466182201e-09 3.5652285174852668e-09  -3.4165318494794419e-08 -1.3359100472421489e-08 -4.1885456404264831e-09  -3.9657267746634494e-08 1.4304736640669940e-08 2.7652090841065260e-09  -3.6432363087225320e-08 2.0160478682824490e-08 1.3961840514385139e-09  -2.9783942910121101e-08 -2.3625007686457742e-08 -1.5716347224726968e-09  -1.3042011081286182e-08 3.1978468291414936e-08 -2.5172823478315849e-10  -3.8191900617931469e-08 -2.1851801490688735e-09 -4.8443528349200965e-09  -5.1676754931375361e-08 2.7618153254058343e-09 -2.0178862651235388e-09  -2.2789810442538239e-08 2.2923783293548695e-08 3.3578252729080457e-09  -1.9595575444453850e-08 2.8082886767329967e-08 1.6982016386155332e-09  -2.2602889954624960e-08 1.5414542295829660e-08 5.3513611831482931e-09  2.7400251129289221e-08 -2.6466670975347049e-08 9.6252172104123845e-11  -3.9086036871071995e-08 1.9966029636996838e-08 -3.3364448921724989e-10  -5.0457074297530213e-08 1.2259793962783018e-08 -1.9131619321160070e-10  1.0427777455442236e-08 -3.0042406326220951e-08 -2.2172523313740717e-09  -4.3017989075091934e-09 -2.8060287601634721e-08 -3.4622564615609952e-09  -1.6641027796067741e-09 -2.1955368159733220e-08 -5.2160696544339983e-09  -2.2125243235431172e-08 -9.3009026368000665e-09 -6.1853275713577213e-09  -3.1763816234703678e-08 1.8234166077496328e-08 -3.2972857182464779e-09  1.6238831508600013e-08 -2.3610420102768733e-08 4.0225616204771819e-09  -3.1434215060394079e-08 2.4049491827882049e-08 5.6437343183956920e-10  -5.6100012898034867e-09 -1.9068344950144954e-08 5.8357986325447020e-09  -1.3674995455916639e-08 -8.2861115845926772e-09 6.9383438233205171e-09  -6.2244009081551302e-09 -3.2166745146839330e-08 -1.5647643257433027e-09  -1.7643240647534816e-08 5.8671613830096985e-09 -6.9199664075096363e-09  -4.4403951126143767e-09 2.9140399797368365e-08 3.0270501489029334e-09  -3.5650959641490036e-08 8.6328795696116937e-09 -4.6168307930483352e-09  -4.7979518665830473e-08 1.1582325563072858e-08 -1.4896679925282284e-09  -5.7556787827124787e-08 4.7207066016141922e-09 -8.8964880143805345e-11  -5.8790541811305239e-08 5.4774733227641638e-09 1.3518277005721076e-10  -6.1547291519044623e-08 7.0382142948063585e-10 -1.3945142607092748e-10  -2.9113233715173468e-08 -1.5190078455466349e-08 4.5328592764292359e-09  -4.0528076058564032e-08 -1.5025319477005168e-08 2.4094103217434399e-09  -4.8234264349699759e-09 3.2397524080994154e-08 1.5024933850583925e-09  -2.2928641611409523e-09 -2.6768051755928563e-08 3.8863784983544391e-09  2.1888546598936205e-08 -2.8348601314382088e-08 -9.4646683844161047e-10  5.6470533582284419e-08 6.4567598584487697e-09 -2.6219320441803063e-10  3.9649835401579114e-09 1.0969929148330744e-08 7.0960981002236011e-09  8.1919407063314447e-09 3.2961135998632681e-08 6.5913859731396167e-10  -2.0938872499115850e-08 -2.2526384908294277e-08 -3.7893564138796203e-09  5.8895838822264375e-08 -5.5865337967124105e-09 -1.3018186949375731e-10  3.6709973519521660e-08 -2.0985966886604599e-08 -5.3906933042772289e-10  4.3028505537799415e-08 -1.7469156915025135e-08 1.1372293259182560e-11  -4.5379581652782831e-08 1.5895736629528589e-08 3.1992714421645983e-10  -1.7410659323671472e-08 -3.0584214834244920e-08 -2.7773989751275996e-10  -3.0787109806578179e-08 -2.4386326114804346e-08 -4.7659095063838470e-10  -3.9305870454796487e-09 2.2735451978742567e-08 5.0511352336233923e-09  -1.9497377617674865e-08 4.2591441368567286e-09 6.8026468061466704e-09  -3.8624380324833374e-08 6.1799103054047238e-09 4.4384103596206233e-09  1.1811305503697819e-08 -3.2408854622633136e-08 1.9288323074051338e-10  1.2181092539181385e-09 3.3766572256373848e-08 -4.8095426927156612e-10  3.5409069598799508e-08 1.9878441583162540e-08 -1.8432769000065212e-09  5.8867337172980141e-08 -5.6627238371163746e-09 1.1577268806909930e-10  3.4162906190034842e-08 9.3962127544375653e-09 -4.7328464476705518e-09  -4.9798766605661009e-08 1.3180354454568109e-08 -8.9514940489232372e-13  -1.2473957333936520e-08 2.3933821328625074e-08 -4.3060479826056377e-09  3.4825003373702248e-08 -1.6226234294991805e-08 3.3655083344653043e-09  -5.7851028171371628e-08 -2.0368384299638448e-09 -3.4935969241706232e-10  1.4508889258821990e-08 2.6326506729539825e-08 3.3356751938599445e-09  1.8585900008316973e-08 -1.7693957385081641e-08 -5.3269301627281105e-09  7.3518282111589643e-09 -3.2812718961898066e-08 -9.0351358772131426e-10  -3.9009021551988117e-08 -1.8769018024923084e-08 1.2538720733813165e-09  5.1070415674569730e-08 1.2196231628385101e-08 1.7254312190588338e-10  -1.3213056482388966e-09 -1.0051086112133976e-08 -7.2289221700703230e-09  4.8688331365443877e-08 1.2939001717436565e-08 -7.2831319056964153e-10  -5.9349470534306003e-08 -5.1840314436808989e-09 -3.5927961575842363e-11  -2.7852647835735719e-08 2.6089980091423844e-08 -5.2923907381821320e-11  -1.6648117314360356e-08 3.0587642755162001e-08 6.1348994496640032e-10  5.3683723892890643e-08 -1.0365262448904408e-08 -1.1974081210249217e-11  -1.6913619804540904e-08 -1.8144183456159127e-08 -5.3222598060039074e-09  2.1322084322716301e-08 -1.6395342383628966e-08 5.2892714016314267e-09  -2.7831719102294042e-08 -2.7192008963853599e-09 6.0798777997550896e-09  -2.0489607509596667e-08 -2.8566903295659791e-08 -1.2001928435369896e-09  5.2327841283549093e-08 1.1231344643685761e-08 -1.1637175213118938e-10  -3.7435675037963832e-09 3.3698933377963516e-08 4.3434626553629186e-10  -4.7073261502436685e-08 -8.1039687263976901e-09 2.5660696582579644e-09  -3.4581709255170384e-08 -7.7783064483152543e-09 4.8535882804763226e-09  -1.7118617287455874e-08 -2.7554427254482274e-08 -2.4507517481119112e-09  -3.9825394029363132e-08 1.9596057316499036e-08 8.8996446408745542e-11  3.6968723630346978e-11 -4.3953459725367377e-12 -6.3371875455437238e-12  -2.5198315601462756e-08 1.4238961520222298e-08 -2.0972884207985426e-10  3.8751530907699681e-08 -5.3036242483505523e-09 3.7128384024272054e-11  -1.5390612431290913e-08 -1.5358362061282785e-08 -1.4843509436311074e-09  2.8994409501856075e-08 1.0566588038688052e-08 -1.2419842945365087e-09  -2.0118176752882173e-08 -1.6054988826999769e-09 3.1709835488497136e-09  -4.0022653973428771e-08 -2.6402361852454405e-09 -1.9298333107153656e-11  7.5684363446299199e-09 -1.7590254961248576e-08 1.3320737381382113e-09  2.7596231334757058e-08 8.4075313900116198e-09 1.9673669816145906e-09  -2.2128527655087457e-08 1.6447706331165574e-09 -3.0235006675668822e-09  2.0292573399374428e-08 -1.2869431989008869e-08 -2.3383833915717142e-09  -7.4266129881844140e-09 1.4995640060359143e-08 2.6801314564769094e-09  6.1847493462303675e-09 2.1284471999174162e-08 -2.0160116817657008e-11  1.6831887245342880e-08 -5.7553656946082672e-09 3.5801189416993239e-09  -6.2013530631921680e-09 1.6848497505370061e-08 -2.6386763398319083e-09  1.4993378915074600e-08 2.0614187871130659e-09 -3.9297958858526462e-09  -2.6212420795384910e-08 -1.5639947706200256e-08 1.1313839913670775e-09  -3.9332237505131755e-08 7.1669540499053755e-09 1.4560037000653846e-09  4.0647254618163038e-08 -8.4901691570032258e-10 -1.9208403849937566e-09  -5.7695762062740304e-09 -1.0373644443684976e-08 -4.1595416097953371e-09  7.5719925158946667e-09 -2.2539994964089059e-08 -9.0758250202018139e-10  3.3216297594826270e-08 -1.2620034623121296e-08 1.6701843038974542e-09  3.1277706909392667e-08 -1.7433150799859051e-08 -1.6002931672027306e-10  -3.8773731793005616e-08 -7.8936653188961522e-09 -1.7875471352939776e-09  4.6240581656379191e-08 6.1428231106079336e-09 2.3809714105326827e-10  -9.7151543358599166e-09 -1.5185713256757427e-08 3.4815759232896103e-09  -4.4677844796692278e-08 6.8541210993665991e-09 -9.6090718504471647e-10  4.4810171519536718e-08 -1.1807944847524642e-09 1.5289346545677379e-09  3.0975546350679521e-08 1.7228267339382438e-08 4.4340932395791938e-10  -4.2369929984594912e-08 -6.1587957238244156e-09 1.6120613577030009e-09  1.0508689497355347e-08 7.5721169933706230e-09 4.4947827199340569e-09  -1.4073404035162966e-08 2.2774445355593182e-08 1.0075778331487060e-09  -1.3331446347823952e-08 2.3863742286513039e-08 -9.3232011140335328e-10  1.6525023029152510e-08 2.1171407835227467e-08 -1.8580110697814238e-09  -3.5425780396552078e-08 -1.6522014858498906e-08 -5.7672621473544202e-10  1.4124715725861968e-08 2.0846115524487675e-08 2.0038703098592974e-09  -9.6066966005083476e-09 -2.4328194646314055e-08 4.3613122011213558e-10  -2.6680373981187823e-08 9.3052214233264046e-09 3.5857835701693598e-09  4.2500558290973786e-08 -1.0600087916286603e-08 -1.0845688735942847e-09  5.9144301758280883e-09 -1.1546770435408309e-08 -5.8859430255916339e-10  1.8072939374110424e-08 -6.1157744884703787e-09 1.2298460839596029e-09  </DataArray> 
</PointData> 
</Piece>
</UnstructuredGrid>
</VTKFile>