<?xml version="1.0"?>
<VTKFile type="UnstructuredGrid"  version="0.1"  >
<UnstructuredGrid>
<Piece  NumberOfPoints="201" NumberOfCells="657">
<Points>
<DataArray  type="Float64"  NumberOfComponents="3"  format="ascii">-43.00654876313077 135.4461275645358 538.1017172140943  4.277861334826603 -139.5696300544402 -542.8550294930247  5101.389680172573 30.88315477047911 -672.3313727246954  8847.760724075384 160.8042035126643 -772.8601168331866  11105.48770989081 233.880774889542 -765.6937999469087  12307.32675192829 260.8149436414677 -540.8832436376206  12689.03648371693 265.1864977907268 -185.3222261373537  12310.7562540389 268.2770968090928 166.6979098470816  11107.28314159041 281.8707167908153 399.8212626725555  8846.188293126608 296.1750345877404 456.1244098770754  5076.87763667905 260.093308328804 481.135669098502  5994.30586796067 -2209.291061611949 -1367.091583338869  6239.242520989755 2057.055628668993 1008.167659562948  12112.95890692978 -1746.681329135392 -759.9858738618088  9651.459185849009 -1930.984737672076 -130.8715888975879  11494.05588293732 2314.995820938133 729.9725354322488  11496.33829062401 2296.923704065216 -192.9170740270528  6930.704713691522 2175.272494417882 -122.4825719231846  2386.301061748538 -1899.158199941998 -146.1416983473387  9586.166295402749 -1837.125994393022 -1274.597358114426  6681.835831565994 -3774.143983579574 -1719.062206649243  9373.4607231517 -3601.815915126343 -1510.361064531458  6352.795954481652 -5158.456699838881 -1805.430134416306  8700.310356306971 -4793.631353187803 -1463.176064348293  5386.379663061095 -6042.164800627331 -1670.58446979519  7697.403756951328 -5429.254614598486 -1288.589526099127  3928.775735853487 -6432.942603787183 -1463.998509308209  5981.137463432929 -5638.047148953322 -1129.589574136656  1964.475997041914 -6340.150470471364 -1264.497488376325  3981.562158484897 -5249.40202308582 -991.7098521043479  -463.1555888739062 -5732.823761874637 -1039.321761519429  9178.115202742541 -4436.652776753652 -882.1952301811419  9753.572696028079 2321.705733046464 959.4987977905377  9494.204887237465 4110.429711992941 1247.401333568177  10919.38385220324 3955.913952555659 861.5272003700569  1468.542804327046 -4328.073702953713 -777.2246709789191  5907.973296187355 -3687.382384738055 -629.430933621646  7070.261710255554 3947.612178076766 1456.429194991098  6495.197102401472 5446.510297555569 1634.909052710293  12147.34389298242 -1696.053062743668 -404.8233899549894  10675.19102186301 -3712.244591473185 -961.2357366727526  11403.02537448499 -1789.58385902795 -1070.202716599975  2622.610936461946 2046.2445467911 59.63998263399266  9745.974015435248 2199.791163929622 -255.7791462052128  9499.045939214688 4068.390442824002 258.8883275421478  2529.712040712608 -6173.89663897121 -1910.893597190638  -2308.17918730113 -6541.656622257958 -1221.839495602718  2913.295392550037 -4008.114316924391 -1762.53455296581  10880.27301404314 3997.980323973227 361.9206335255159  8403.873116681149 5477.700146106648 748.1457050272923  6419.476151537329 5302.679157781561 703.7185221781659  4959.302001020579 6355.914214456543 1089.536793877615  2461.029061930883 5953.734047402315 1028.748533311821  891.0877460531724 6665.698979991861 1308.99947302929  -1946.910033626029 5978.716241121981 1150.980795355551  -3220.819326575737 6456.05254303081 1375.612029115425  -5978.345979014557 5567.921379308945 1101.566194863711  -389.7080885428786 6847.921126198828 1596.207468789558  -4800.227584937645 -5677.969446534886 -873.3138154625996  -6148.277666602004 -6229.822077090054 -1031.793165502823  -6832.426618379115 5745.381461610403 1314.652091972695  -9142.200157974823 4532.091433926915 923.1398861791437  -9582.991534743202 4513.240082678644 1173.313969892655  -11310.79099781309 2940.52281989025 648.9101142407541  -11433.73643352884 2785.934883538755 964.3549030584567  -10459.81715449622 2787.666626245465 400.0168460677453  -9400.649914694875 4194.214030046459 1463.176999527303  -12084.31228216762 1085.687153416893 132.1100344477707  -10940.17299694663 2279.059859494389 1198.839187070986  -10946.25489650671 593.7789963902517 -188.4246784329962  -11826.40738356429 -1260.92494913627 -497.6694911447265  -8470.825981698665 3565.189637495181 1614.8514164125  -2469.417931432767 -3130.312372560374 -371.5864909454433  -8363.457454298115 -5036.861847080444 -575.1731941204994  -10185.90556051385 -1627.300898895139 -778.4748151111856  -10495.77637485552 -3354.808589064051 -1037.115860333505  -12294.45641508105 600.6269803850845 662.1974210361476  -4663.318536371034 4708.190907588875 864.8008617095855  -9681.578514106382 1448.619919661503 1198.463059258761  3390.054943946392 5028.720984008761 1811.896129766416  -11900.85712904887 -2802.045061981179 -546.6439083596853  -8719.254817857814 244.5369721772134 -320.7466163907999  -6690.305719573717 2799.105119473536 1530.010767718562  -8166.558573026577 -3582.357371382296 -1328.004854970325  -8119.255862153564 -5039.67896751238 -1456.839209629858  -6484.222194035631 5191.824476889005 1803.323068750387  -3652.015355227318 -6798.459730402828 -1404.647234782522  -7433.000440342361 392.7286651594737 876.3955580895229  -10117.6265050096 -924.4322243198718 605.6805514337558  -5103.578487748684 -5013.228183638888 -1731.645687660794  -4884.523977790995 -6135.507876270713 -1740.891279191241  -4711.610926812939 -3382.441398373401 -1427.545925013508  6899.413820022134 6252.090332677956 1195.877935716656  -9078.198357553352 -5365.981756924794 -787.026526520986  -10849.2358017371 -3814.082741723444 -267.609373850369  2741.909843322119 6192.907076854268 1861.0550932878  -695.426977993347 5591.43134098106 1965.545713937547  -135.7093288569113 4404.210661920244 1801.2316593948  -4301.727426972835 1900.115174304392 1240.322900610885  -6821.387186673133 -4177.31540131189 -403.0487058642231  3767.990747890438 4888.558249656328 735.981872194482  -7582.206639163869 -5917.94297279163 -1375.786929880142  -954.4932436245002 3693.634689921029 611.4542257826039  -2636.622878523914 1489.095482236866 24.50045041655283  -1247.029522583041 6461.674707550388 1873.751485073389  -3623.507139973416 -1186.418221610513 235.610044540657  -1301.89115228928 -5878.292739000231 -1947.088785818622  -7175.836210911457 -2009.173139511304 176.8897349831194  -9886.314576075085 -3207.606581164468 -25.65063297810422  -11631.60624394222 -1699.426854620472 342.5915130155265  -12252.94885887896 -2133.104021003865 -31.20096388000196  -12619.01328012571 -509.7165003694378 30.33077099746312  -5759.333565533974 3020.800579209788 458.5917560505014  -8189.837333263698 3298.359818378619 500.142392242502  -1472.79440204907 -6590.88685874887 -1834.174887857476  -240.1882904879079 5289.468749609357 952.3767711985939  5562.40505523366 6328.687498729098 1571.839937906992  11393.59064571489 -1678.301275492108 -153.1757364553894  690.2122182419643 -2267.727662120947 -1238.76739579489  1787.932948671767 -6678.654443871025 -1725.084138849868  -4250.821631829064 4597.762253784254 1881.569506339857  12269.19276575917 2158.04805585072 19.04274080604994  8577.021080082812 5442.314683722756 1280.623066031457  9877.988194613798 5014.801144286274 831.9601333737546  -10079.8353911269 -4608.329242508371 -1059.210832932174  -4126.573270081706 6428.77137171352 1617.774188876857  -7071.894549579963 5583.05623188463 1573.399981331628  -1054.664429412547 -4587.132668998861 -1812.653476314433  -3893.173940347956 -1098.118579019699 -768.6271429760659  -7615.452310128205 -1655.367283489403 -870.0787244415408  3349.561000904026 6806.741475439389 1427.335214683614  23.18201093084507 -6835.129281510137 -1475.289956344261  7479.468725214389 -4393.000455808113 -779.1759991338297  12272.07813943652 2183.689187874059 365.1932165589415  6703.888512696416 -1785.883514739146 -115.3632155781262  -10972.08391135362 -4190.010754485797 -621.9281653485677  -2976.504984912814 -4878.433847563578 -774.6724397218368  7358.796022039331 3770.829252212124 275.9704423333332  -11455.32100415619 362.7275232188885 853.6019032425698  2955.00705379465 -5289.845493763748 -1956.135476741158  3963.902958293516 3780.94368429256 1546.071157107468  2178.48797531074 6748.169326480187 1708.913296169434  -8298.995893884752 4358.760495268134 785.7544273997194  10750.31649735342 -3303.071277873107 -1199.226162019347  -160.9705555234971 2115.606737832801 1170.285629229701  10059.23902148403 -3221.167544503508 -510.4046080873883  -12267.10393406702 1533.881572761805 515.0614337436689  -6995.734739000112 -6258.006288838133 -1219.420168360046  -4476.335639635829 -6648.168316297608 -1575.975623417672  11563.62956293131 3541.997419664388 479.2602142521462  -3296.508837888025 3665.146611574696 1694.555340728558  4572.48985852692 3428.445632816996 345.0923343734621  -5462.455714114323 309.1927570630949 -300.705506157047  -4667.555890172217 6035.26389259093 1806.696575739219  10967.72710681423 -3057.2004237153 -576.5290434924267  -1241.803320497025 -6874.715378559123 -1649.212889394572  -9236.184163637123 1699.611932980285 87.3392658252159  -6758.357761582653 1432.620087821552 26.98238589280091  -3663.319434391772 5638.995250002838 1941.088785789912  -9274.157650236244 -5361.00126806903 -1009.552069826192  -10.58773040424618 -1.827711262391761 -0.9603496703654166  -5185.987343660594 -3129.360398908352 -767.4172995456203  7576.087295213716 1383.14648413726 203.9521276123658  -2940.073134804039 3069.156391827269 1126.124087762185  5612.461387864439 -2061.666237610453 -628.9680908744064  -3923.534433127954 164.8282685811219 -79.87621231015619  -7696.558948813106 396.6343755710227 307.8551241553704  1726.207737496027 3553.474417891964 905.6303333469754  5330.468729409019 -1649.525547296947 -811.7574807806244  -4372.323749722254 -410.7819797797072 226.1645939107813  4169.343869668382 2802.591788658902 938.0375781896744  -1672.091666320357 -3101.243343275461 -1113.255451659416  1061.987545936002 -4218.499798907504 -1252.832662537706  3412.101739357397 1213.239409220717 21.29340190986554  -1473.6802856
[...]
<PointData  Vectors="Forcing"> 
<DataArray  type="Float64"  Name="Forcing"  NumberOfComponents="3" format="ascii">-5.7201692027866215e-06 7.1475261975062008e-05 -2.0013245252052249e-04  6.3341165916400297e-06 -6.8718538124669691e-05 1.9065031830795589e-04  1.4615986735470586e-04 -6.2700151170973735e-05 1.8919090302018946e-04  2.4728785233235092e-04 -4.7347464322022094e-05 1.5588317466784353e-04  3.0619839049947486e-04 -1.4428214588621764e-05 5.3713071965393265e-05  3.0596333864967701e-04 -2.1351708142713403e-05 1.1324843854512332e-04  2.9804601196553539e-04 7.9791514828392095e-06 4.9163048577262642e-07  3.0938665555844692e-04 3.2167082423807768e-05 -9.2391248646685276e-05  2.9384915345086134e-04 5.2979475369017406e-05 -1.4961678027609416e-04  2.3886303681830835e-04 6.9812331903989659e-05 -1.9295367516082408e-04  1.3639306942660886e-04 6.4602315417311724e-05 -1.7671000901629699e-04  1.6678051602610431e-04 -8.7973491715893690e-05 6.3331154964173011e-05  1.6590051297820697e-04 1.1226640430632362e-04 -1.7519731451629415e-04  2.6206872056520707e-04 -2.2503751565631996e-05 4.4759847192739955e-05  2.6175618053146736e-04 -7.7994383598595378e-06 -1.3909838290059845e-04  2.8514808104188830e-04 8.9364481827126951e-05 -1.5777660004226424e-04  3.0644548991826429e-04 5.3741397064945738e-06 1.7278199977189233e-04  1.9823410059247444e-04 -8.9675884301293217e-06 2.1355075449409731e-04  6.1835285408319774e-05 6.7560527648877792e-06 -1.8879684921266438e-04  2.5943623370113211e-04 -9.5472815604875314e-05 1.6764520136952355e-04  1.8027865657740496e-04 -1.3278486428868302e-04 1.4027718495587596e-04  2.4046026741583271e-04 -1.0375941352481578e-04 1.2426928911982412e-04  1.6735005799414633e-04 -1.2952939879253881e-04 2.3572364710272247e-05  2.1155607071612681e-04 -7.9554891494631579e-05 1.0864049284159081e-05  1.3522202116113150e-04 -1.0804806276429977e-04 -2.6852070482410530e-05  1.9266350970876069e-04 -7.2888981543792056e-05 -1.1541064048779300e-04  9.7912230125080769e-05 -1.0449425133674642e-04 -1.2035084285562259e-04  1.5820877497604293e-04 -1.0133909579359316e-04 -1.4995475422583022e-04  4.9750477287748234e-05 -1.1504070037109014e-04 -1.7551744297540878e-04  1.0490750630235989e-04 -7.7585754129328845e-05 -2.2817742345457832e-04  -1.7635585535949679e-05 -9.5760136974965487e-05 -2.0330136449141426e-04  2.3932748799409230e-04 -5.4482412584345802e-05 -1.6792953915305308e-04  2.6113456049613160e-04 9.9230805061260125e-05 -1.2917368307876719e-04  2.4446744294918249e-04 1.2199063611387047e-04 -1.0373223082459292e-04  2.5846885808674243e-04 8.4628352880935617e-05 -8.1328654007429367e-05  3.5387649851763891e-05 -5.9547746219486598e-05 -2.0221362109858285e-04  1.5833614246469013e-04 -4.6117331884933373e-05 -1.8480513065447483e-04  1.8749806291631512e-04 1.3310497116935638e-04 -9.2564235085203193e-05  1.6441971830493245e-04 1.3446507962137501e-04 -7.8338687582723689e-05  2.8280860605259348e-04 7.4783709928067507e-06 -1.1785375615950042e-04  2.5495773621036117e-04 -3.4177588550140584e-05 -8.1393337332740027e-05  2.8609690864606855e-04 -7.3584554664022481e-05 1.6004334362551445e-04  7.9057596752571998e-05 -9.9711923295760730e-06 2.1913653454461138e-04  2.7286050072098338e-04 3.7553854835120552e-06 1.7233775677401195e-04  2.6226550208985523e-04 5.1996315581797268e-05 1.6944410920540612e-04  6.5373304420066926e-05 -1.4098225611150077e-04 2.6747204921040470e-05  -6.7842157306852445e-05 -1.1923725616382924e-04 -1.7495465905733947e-04  8.2336036585507741e-05 -1.4608964337098606e-04 1.2822408458432549e-04  2.8673275929175896e-04 5.8589304346694471e-05 1.1542439929809269e-04  2.2809884448598113e-04 8.5019503341611142e-05 1.5610205959039276e-04  1.8060762982768030e-04 8.3132380289518832e-05 1.8392745668142796e-04  1.3848115785891179e-04 1.1290214190055689e-04 1.6222206226513912e-04  7.2950429863997707e-05 1.1104124032937779e-04 1.6116104459012700e-04  2.8719236900336134e-05 1.1551869145794052e-04 1.7228280737762984e-04  -4.9116053147414999e-05 1.0612159452134250e-04 1.8687078007736715e-04  -8.0582823848628459e-05 1.0249075407527762e-04 1.6268886348398071e-04  -1.5903374465974345e-04 9.4110721780250726e-05 1.6235195508114894e-04  -5.9718176610622456e-06 1.0519551323635605e-04 8.8520969133800472e-05  -1.3550123994939220e-04 -1.0303683233280689e-04 -1.7068753513965179e-04  -1.6937258172491153e-04 -1.0531115643387331e-04 -1.5786548487526457e-04  -1.7411962723551421e-04 8.7112179936011283e-05 1.2747337152677578e-04  -2.3906373028910723e-04 6.2646378375878856e-05 1.5382409110532909e-04  -2.3363046010218196e-04 6.4936613156875414e-05 5.7162009414234209e-05  -2.8095351642110403e-04 2.3026523366349204e-05 1.1188325324488947e-04  -2.7342114545481604e-04 4.5024926758607635e-05 -1.9919698779907951e-05  -2.7995178037142955e-04 2.5652932021227802e-05 1.4768288141983060e-04  -2.3258294851417056e-04 9.1542717748686669e-05 -6.2496623079501018e-05  -2.9927830989753861e-04 -2.2038488128857618e-05 1.6161875379440660e-04  -2.7682211096604291e-04 7.4094257385599784e-05 -1.0705881712672436e-04  -2.9465131757103641e-04 -1.7630280500515138e-05 1.0441940852139735e-04  -2.9773098400029841e-04 -6.8949557278138627e-05 1.4077871472560673e-04  -2.2680137515190626e-04 1.1645435932842053e-04 -1.1739888352576969e-04  -7.2710389341729443e-05 -2.9481690592450238e-05 -1.9384529305765112e-04  -2.3172940000844023e-04 -8.5763445023961108e-05 -1.5296113583922451e-04  -2.7180437074429209e-04 -8.8302578997442245e-05 1.4083973108408029e-04  -2.6454770789361993e-04 -1.1321698453661369e-04 1.4608121776781748e-04  -2.9559129856437076e-04 2.9639673737287042e-05 -7.9853183761367975e-05  -1.2343346998820970e-04 7.5203659494406668e-05 1.8572177776197483e-04  -2.6678164506184124e-04 5.7483304037914682e-05 -4.1034885117930074e-05  8.5978922916980546e-05 1.6115167785280874e-04 -1.3051587260152288e-04  -2.7613117175808794e-04 -6.3300172843271197e-05 6.1999474761485253e-05  -2.3585314753950230e-04 -4.6046810772847303e-05 1.6563949897250129e-04  -1.8585397536803288e-04 1.2356780643429672e-04 -1.5614799104743653e-04  -2.2001793173529881e-04 -1.1871098655583385e-04 6.4576183333321871e-05  -2.0732207078124579e-04 -1.3649108622036205e-04 1.0120589536121292e-04  -1.6099403567917047e-04 1.2201202514596621e-04 -8.3378940433292913e-05  -1.0026107177650529e-04 -1.2383678593328514e-04 -1.1649333565046251e-04  -2.0797491813216281e-04 6.4788643991998905e-05 -1.5773475751434978e-04  -2.7816659869499711e-04 2.4919528145416161e-05 -1.5708332519879115e-04  -1.3200351735301029e-04 -1.5985582343085002e-04 1.2766288304541320e-04  -1.3376341423784781e-04 -1.6024555173272252e-04 -3.7593694815087170e-05  -1.2489040614897164e-04 -1.3637020480863232e-04 1.2516987399211249e-04  1.7533933859383163e-04 8.6304854048349584e-05 8.5547483405780356e-05  -2.4163834799573622e-04 -8.6830619680296992e-05 -1.2903018559872850e-04  -2.8779194897541932e-04 -4.5222889292721529e-05 -1.4385772043982135e-04  7.0555670580683489e-05 1.5604221472203763e-04 -7.8548867305713055e-05  -2.1028772887907899e-05 1.6086728948800313e-04 -1.1003487541927603e-04  -6.3839898169851854e-06 1.4834234423134228e-04 -8.2668344352010274e-05  -1.2108519899452895e-04 9.3103819698073110e-05 -1.0441293125130968e-04  -1.9136674461174319e-04 -6.3535775119101696e-05 -1.5607359529506068e-04  1.0909544966744931e-04 8.1571830669995390e-05 1.7478366093936348e-04  -1.8990201049031043e-04 -1.2307384418097596e-04 4.6481887948754060e-05  -2.1107757329803310e-05 3.5886303596533711e-05 2.3076723968369132e-04  -6.6870632740150614e-05 -3.3002753009287994e-05 2.3940959953333029e-04  -3.2088510673697240e-05 1.3101417956432564e-04 -5.2969886486556444e-05  -1.0569519131699200e-04 3.2185715031739145e-05 -2.0534539442496860e-04  -3.2793786338565892e-05 -1.5834858753625903e-04 8.2359722166914975e-05  -2.0176612604906323e-04 5.4224628302413182e-06 -1.8482087333398343e-04  -2.7536774997644211e-04 -3.2250925876182639e-05 -1.7106592987761651e-04  -3.1272769846285337e-04 -6.5294616548428612e-06 -1.2699935616191857e-04  -2.9114269103548473e-04 -1.8606134887738739e-05 -7.9757048008490265e-05  -2.9937289169133444e-04 -2.3903416059901831e-05 4.8250702739134435e-05  -1.5491875528994079e-04 1.5216770132780598e-05 2.3069061992875674e-04  -2.2088583018962308e-04 4.1014955301503542e-05 1.5043571948417830e-04  -3.9289590157147675e-05 -1.3970041538895637e-04 5.0107608444741008e-05  -3.3925380625476957e-06 8.9341124112016587e-05 1.8710508329994571e-04  1.3881420465318461e-04 1.2509969660481538e-04 -4.3814491974598360e-05  2.9796590226672132e-04 7.6041844386687618e-06 -1.6114107135916110e-04  2.3384051551716443e-05 -1.0984282871123264e-04 1.2834260717285156e-04  4.3241845757224524e-05 -1.1949399914139724e-04 -3.2867075562349030e-05  -1.1616242879311869e-04 1.5231692788889251e-04 -1.0744456547730261e-04  2.9025521466897282e-04 1.3315089619746054e-05 9.8607630716617049e-05  2.1342212394352534e-04 1.1331916224282603e-04 -6.2744031498019695e-05  2.4433134027555912e-04 7.3367528004323224e-05 5.4794855970247127e-05  -2.3725048896098224e-04 -9.2299256509789651e-05 8.1178937589918723e-05  -1.0009746765172443e-04 9.9449274291047709e-05 5.0644031120989403e-05  -1.7231353269750717e-04 8.9672069231005821e-05 3.6584153887301046e-06  -2.5795662344997038e-05 -1.5219808090690884e-04 9.3445631938350834e-05  -1.0266278042664657e-04 -8.5907508425746399e-05 1.6978098217455305e-04  -2.0409228245676884e-04 -8.6354728826313246e-05 1.1451171905699235e-04  9.2595836712829776e-05 1.2250253519747255e-04 1.1340513257747157e-04  -3.9080186981521156e-06 -1.1991717135530844e-04 -1.3439233827198030e-04  2.0034488834087057e-04 -5.7811467013506289e-05 -1.8997413273221713e-04  2.7704853109801399e-04 5.2613323311112270e-05 -6.7325961275993210e-05  1.8030920866201700e-04 1.6354497473027131e-05 -2.0806558922538491e-04  -2.6933136966657381e-04 -6.1036000566722941e-05 -6.5651431684556345e-05  -8.9264101796693543e-05 -6.2758339670202011e-05 -2.4150057102280279e-04  2.0795390093048295e-04 5.2538337104920466e-05 1.5732880218063120e-04  -3.0480381138277675e-04 4.9719867005288990e-05 -1.3816573248490486e-04  8.1648411860943491e-05 -1.4516126686541569e-04 -3.1077062757896631e-05  1.0556340643581954e-04 1.3627400948338075e-04 -7.9093285193112991e-05  5.7230531154709062e-05 1.1988840877627611e-04 3.9064185894565736e-06  -2.2213732090669755e-04 6.1352398825462786e-05 1.8215557171784891e-04  2.5642852107410943e-04 -6.1585916352017528e-05 6.0547875757932395e-05  -9.9948604875231404e-06 1.0965969240948993e-04 -1.4444064632350090e-04  2.7033611666687704e-04 -3.5008209752942060e-05 -1.6320941066075141e-04  -2.7562053213962259e-04 5.8857001952715641e-06 3.6856164203971330e-05  -1.8223093488376699e-04 -9.8951612230954066e-05 -8.8814573705037504e-05  -1.1732889669826786e-04 -1.3041625090363986e-04 -2.8439013335557458e-05  2.8518676780928088e-04 5.8053709413858795e-05 2.8578784798762848e-05  -9.2349836744234779e-05 1.3008722966448394e-04 -6.4088907332348320e-05  1.3180920180973541e-04 2.7707214075906325e-05 2.1619367894815255e-04  -1.4590615907692902e-04 -5.2228066762277193e-05 1.8298664031975146e-04  -1.1720982008639503e-04 1.1944495759814756e-04 -8.5572856127571840e-06  2.7577927557730732e-04 -1.7158786730282141e-05 -1.5045587088219594e-04  -3.4994098773379230e-05 -1.2011327352768567e-04 -6.4206643525451529e-05  -2.5089239477007021e-04 -1.6920274184730568e-05 2.0839097744364840e-04  -1.8216135352578473e-04 -2.6770716778175198e-05 2.0673236011767616e-04  -9.5824490520018263e-05 1.4542132348930261e-04 -1.0117583137551737e-04  -2.2190065202922838e-04 -7.0455898877884698e-05 -3.1399624093237344e-05  -4.8843120777127006e-07 2.7042576115020116e-06 -5.8988437813649489e-06  -1.3364037002494932e-04 -5.8033896677749451e-05 -4.5329890968845400e-05  1.8856237904486819e-04 3.2331857403363727e-05 -1.7450276720152634e-06  -7.6518567843825416e-05 7.8644976154809370e-05 -4.6403351838910087e-05  1.4761621416743825e-04 -2.4718841611061206e-05 -9.9666776385453544e-05  -1.0294527667949031e-04 -3.6118682648126715e-05 1.3390278972944360e-04  -1.9270213933987950e-04 5.3143926099831876e-06 -6.8799552726636221e-07  4.9867058011833471e-05 5.7523076370265863e-05 1.2901725547970257e-04  1.4076986140854753e-04 -5.4956640388776723e-05 5.1928701305682799e-05  -1.2110740251046035e-04 2.3243380230590985e-05 -1.1528272464047315e-04  1.0615259755911785e-04 9.3248523100732692e-05 -1.0079114640279580e-04  -4.3301869008686785e-05 -9.0620668510506985e-05 3.7147621501619553e-05  2.6412906770689646e-05 -8.8350197969111528e-05 -5.4511396221519597e-05  9.8413467909268495e-05 -1.6068227618030235e-05 1.6685224320500737e-04  -4.3916458239281011e-05 -4.9810152571607345e-05 -1.5041534042898653e-04  7.7021318727161681e-05 3.9295833783252201e-05 -1.5481717829017602e-04  -1.3508465178095928e-04 5.3927955723773295e-05 1.0018555371793082e-04  -1.9097547187006098e-04 -5.2728513885504185e-05 6.9013342934208874e-05  2.0568870124205375e-04 4.3477041756792465e-05 -1.1183738656449150e-04  -3.1802409849734586e-05 9.1143274769555746e-05 -1.1776597330590841e-04  4.5938835574586681e-05 9.0005138821594658e-05 -1.5447396436581516e-05  1.8602144818663833e-04 3.3104600106655551e-05 1.4844687977227862e-04  1.7011025243529230e-04 6.8145859395995942e-05 5.3581230476443554e-05  -1.9315794534061713e-04 6.2661715508838676e-05 -1.0609403462377697e-04  2.0508820940915316e-04 -1.1501050953388212e-05 -7.1527425811789699e-06  -4.5553769773085710e-05 3.1079434377511416e-05 1.7785896130570567e-04  -2.1974135988234812e-04 -7.9666856990248598e-06 -1.1995226726604930e-04  2.2531619967029056e-04 -2.3472663022265828e-05 1.2359288768050536e-04  1.4834317374025341e-04 -5.4766106296861237e-05 -2.1204938623364378e-05  -2.0896445885650858e-04 -1.5601330959004744e-05 1.6136064975609733e-04  5.8301183519559504e-05 -7.8161667869220471e-05 1.1686091113330273e-04  -8.1546144556496379e-05 -9.7535662451335968e-05 1.7101990634674976e-05  -8.6363018781147508e-05 -7.8761451313418508e-05 -1.4823028780313409e-04  8.3537357481467330e-05 -6.2873671836105187e-05 -1.6356970752249534e-04  -1.7112240906894704e-04 5.0991480626884036e-05 2.5155906200375361e-05  7.1260393559148031e-05 -1.0856046192938305e-04 6.9542352209662944e-05  -4.3504607425975989e-05 7.8047773910205296e-05 1.0089025135627225e-04  -1.3972617648889146e-04 -9.6967237354610015e-05 1.4164808576379390e-04  2.0196540018841297e-04 6.9618332239559550e-05 -9.3936583295812723e-05  3.4010509461995019e-05 7.1548753398011769e-05 -3.9912866344568072e-05  9.9830992062116983e-05 9.5335780703608936e-06 8.4843888774416355e-05  </DataArray> 
</PointData> 
</Piece>
</UnstructuredGrid>
</VTKFile>