<?xml version="1.0"?>
<VTKFile type="UnstructuredGrid"  version="0.1"  >
<UnstructuredGrid>
<Piece  NumberOfPoints="201" NumberOfCells="657">
<Points>
<DataArray  type="Float64"  NumberOfComponents="3"  format="ascii">-0.008069171490061117 -0.006621098028239515 7223.66834924693  -0.01126675661846735 0.06653011190891402 -7223.668749170156  382.2483064713904 0.0913889890212598 -6869.913413546557  726.8808196952873 0.1157991555623061 -5843.436079560104  1000.098340007333 0.007558838304152084 -4245.09256264977  1175.303735687588 -0.0195020170416663 -2231.59757837543  1235.677221785925 -0.04446954438308355 -0.008207323612144225  1175.295849857849 -0.0092521228771167 2231.603774200043  1000.081148263475 0.04732550413881365 4245.039975769063  726.8926699882202 0.02832187810392036 5843.404778455938  382.2581468080239 0.008386470830113017 6869.905401175376  484.3511713733457 -2268.665265926748 -6280.440316739137  481.143618288167 1762.257604670665 6436.284484299952  1176.503430007205 -2022.78527434194 -1070.60777283387  847.5555347689333 -2205.180702567777 4816.203052927487  1070.287319372314 2045.155177150812 3036.836919231753  1065.845447294703 2045.133617536403 -3089.836675021628  540.8004282103265 2030.823294599995 -6197.6583007084  186.3790039410021 -2030.054176651009 6870.44852818549  842.010526100267 -2031.976540979731 -4918.009161380822  586.5585834803363 -3985.355795797293 -5083.717728675829  871.2162285104122 -3908.416301986232 -3500.997485586069  597.9347578633542 -5584.989629313759 -3363.748584739146  842.1509003923485 -5243.761977799152 -1656.335141534876  528.9240132792348 -6649.582956379014 -1407.386960510041  752.7380314386278 -5969.326005678773 355.9453465078489  395.7221538794806 -7103.711515838549 642.3750068339383  573.6773700182875 -6172.032100389578 2436.500558763917  206.762626319148 -6914.304811114482 2591.432028076881  367.0969632969741 -5639.59061935007 4280.542656653677  -14.27448380469669 -6057.149516867877 4289.199118134793  878.9291100007495 -4850.769165684646 2055.550170135169  842.0131746976326 2031.965186342817 4918.026713374331  853.5690236147354 3934.021506910151 3621.058921287513  1033.358925250343 3771.48966089463 1638.751409725992  137.271824676317 -4500.105106829271 5735.782310733336  502.4534154874385 -3947.114757805869 5407.630808494145  586.473903847377 3757.969153715727 5240.852080991769  565.4589571260562 5498.304507456267 3671.768691799284  1178.741055858409 -1973.438909409041 1070.456487661133  1040.011662909204 -4077.003086767969 123.9785624094677  1072.641435212854 -2046.998598018326 -3007.049990280989  186.3707898610112 2030.127419174308 -6870.505801577619  833.6600357509801 1980.941988429754 -4985.415431396287  847.0358519764549 3912.758258228078 -3693.745397223934  256.7241788824381 -6708.009722603699 -2918.543128978105  -179.6466552282708 -6996.442181513517 2453.327419912186  250.2932396155243 -4086.127526079547 -5888.913661176176  1026.29502588003 3816.416325476928 -1693.55497025047  768.2454080851575 5510.742513472705 -2039.14806592144  545.5626285148688 5361.070653753352 -3950.165709863322  431.0208345404014 6676.770026153819 -2199.056771392621  190.3814047804948 6267.933795123608 -3844.626758940552  55.78348268303774 7227.278584238479 -1995.803832536717  -195.2043513829609 6449.197721966964 -3549.077531257258  -322.1834798356691 7098.763154696771 -1505.135726584167  -567.4425982267002 6063.45340642158 -2719.920949208751  -61.98374645890016 7517.475818832534 133.2766088089576  -395.6065172373383 -5823.880895599627 3954.781043805889  -546.5636912906594 -6442.277034140313 1958.034558805309  -666.28193706152 6302.474258244561 -735.0539058763798  -879.3940353221134 4931.290480399282 -1864.778295880822  -936.6490428474183 4921.046268156781 166.8608833272752  -1097.800635482839 3247.723925160143 -1165.287700703753  -1112.775091003288 3082.819259120841 1087.259208169766  -975.4539969626004 3077.208917771914 -3318.392941107413  -900.6285489016269 4553.100298145788 2340.53619579072  -1160.852700241972 1346.474416333647 -2115.864768275553  -1028.040504644865 2533.63012774825 3194.722526690727  -988.4266491537662 863.9869984841982 -4258.038324138305  -1109.713668302598 -977.7143133237187 -3039.043518240655  -765.3403283755872 3816.947594871745 4337.668132455483  -170.9429336210227 -3117.549275310847 6499.145578758561  -745.7654325317468 -4982.857169644473 3225.209986146229  -888.3435853435178 -1323.701401860118 -4860.810275601852  -959.974888599471 -3107.720283260873 -3444.021348594413  -1187.405869522825 854.5690263196353 1825.951797994837  -413.9226353382226 5019.996083222171 -4812.094476303318  -845.9990212753664 1629.953482234975 5030.763686164748  266.306408534594 5071.868949964478 5107.760046573911  -1144.448542849617 -2547.131314228521 -1224.100129845192  -719.8715491497924 528.565982900041 -5851.226391726151  -561.0764272840033 2903.175697698235 5804.430494097696  -692.0699165355509 -3341.203874961575 -5057.89384616633  -724.9968186473267 -4975.982369174866 -3391.924458872323  -611.2257635747267 5602.627924284054 3253.722541689321  -312.4023284401503 -7269.700020907164 465.1154566824159  -590.7344982575396 488.783382547803 6328.749692250098  -872.5478618426778 -706.4825885514825 5072.121168589541  -418.5786596184184 -4987.850281788404 -4829.063610915877  -420.2364737498418 -6359.915953229894 -2991.515199254471  -360.5008564949186 -3157.71464647713 -6210.848983882484  628.1102311483768 6487.599312742557 -203.9041738526278  -844.0336284186474 -5346.067953819921 1280.885936564398  -1015.443396103214 -3611.396536214422 2240.587990792897  221.8877531630896 6531.12393219234 3352.597767339838  -80.0822846506439 5889.529342532313 4475.572434793396  -27.71841222717118 4437.068641987436 5833.770282383005  -335.1296499587186 1874.679424115215 6716.837493444701  -559.0892379034808 -4073.318962661806 5124.745977443363  291.9640796861826 4958.504488821379 -5162.27144262293  -694.133939353023 -6016.719076665288 -1577.191225652499  -91.66719897994385 3803.021677351925 -6211.44597184043  -203.03390469646 1630.485945959108 -6951.902744480714  -137.9224145924114 7031.402660645642 2452.955906959626  -261.3850107289936 -1154.193441748746 6973.095050656213  -89.53191634945371 -6167.547990261148 -4109.734622722  -564.7103863971954 -1855.203404155024 6175.349830668777  -870.4732848489122 -2988.731521511273 4256.58422017245  -1083.02291545725 -1437.305118588344 3197.075271874447  -1184.828808761406 -1866.509261003132 1013.342380077438  -1230.348410370165 -242.8283257742511 -627.2974639883978  -475.2699469087458 3232.016261432788 -5905.024001768685  -720.7310660328678 3576.421190137249 -4765.07126927102  -105.4084813949418 -7084.834220827808 -2364.405643846194  -42.12668349682433 5560.428523807971 -4863.962002412907  494.0722767952539 6619.273687685587 1886.820680809663  1065.515456356947 -1956.553315317652 3146.199536394797  61.8281592296855 -2130.35043085584 -6919.051368591363  195.945474861599 -7342.850807892653 -1112.958101976207  -377.0270511546554 4807.562899810024 5105.863639072858  1181.490869746087 1896.472665402774 -1093.408124830974  790.979879683895 5460.958263179749 1858.357907794499  932.7438155458116 4950.826110416865 -82.55837249315637  -944.6512546717382 -4477.398316996298 -1826.436139696875  -410.6376763638315 7079.789494692767 562.5027755384289  -688.4589123729642 6107.157995371221 1321.602779161828  -67.14079196682947 -4600.413681573067 -5704.897223624766  -288.2823771726784 -839.5806083158724 -6978.348647415539  -607.6313303116228 -1347.926600075459 -6157.183141546735  286.370948888532 7314.980791342397 -369.1978899286756  33.57385974633421 -7478.822486250972 803.0275166857949  683.4818471723818 -4757.394144533498 3930.469546865121  1183.571540441988 1920.754970397108 970.4517478666351  541.1125853818932 -2016.099060004148 6201.108027924646  -1046.129086461189 -4016.218256455445 178.3429427600078  -221.6257091589249 -4965.182911120588 5274.142446562519  602.9256576044106 3643.240090804178 -5251.585104878316  -1059.049923844947 600.5910086474289 3679.385964685575  278.0427003330984 -5604.470083379832 -4542.929457835906  303.1767622942743 3613.52744719914 6085.402817708764  176.58704015892 7281.570450503629 1518.677666454004  -769.7800842061366 4720.945907347827 -3390.788059504055  1034.296109022339 -3631.925477136132 -1887.7249916808  -18.93393793650412 1956.885805684337 6974.547021373744  936.9526544610308 -3533.825137895442 3280.036828058944  -1199.996669831593 1796.500309030432 -164.2616234967529  -640.3125741359988 -6446.56659498911 69.6939576946216  -391.2213712883903 -7034.46668862951 -1197.482921886853  1109.298972024071 3329.266213213646 -50.25807613117053  -276.264938134076 3707.265975616946 6077.135528152064  343.7433073530153 3366.655494013531 -6141.922325660275  -417.0617091517531 552.8902149732737 -6779.835194940267  -452.9949172467169 6587.154735504395 2295.705537384058  1051.825053137369 -3378.076681829305 1986.29573685398  -84.4375833277717 -7472.655223629267 -725.6256284798687  -793.176726959876 1957.397499879766 -5214.381241970853  -542.1985099096911 1662.723951214295 -6293.582751241847  -346.3867793943293 6055.726910640308 3787.597822542569  -870.3961982227729 -5339.933311628594 -404.1546595477147  -0.01112011742114554 0.001626746303760359 -0.01775531033073852  -394.2243450816262 -2949.223058084089 200.0737723413109  595.8272866740357 1150.364901007485 -33.04201607705507  -237.4997673208739 3099.535015576541 1591.218449885965  444.2518931826514 -2197.536421030092 1447.499688793594  -289.3899262163671 321.5508485126076 -3215.686204823121  -612.7625737165341 585.5249653111997 2.64868185954428  117.1595440076303 3505.818084153773 -1381.794677249606  413.99733278042 -1727.869563474052 -2163.620067778398  -321.9887656866834 -328.2598686276964 3118.897144245991  308.8739964133326 2608.51117817263 2515.099428248867  -114.0746546112266 -2976.514479417021 -2732.209518561552  102.0833584943484 -4299.148094990033 13.35336661787007  245.8885881947492 1141.5803421354
[...]
<PointData  Vectors="Self-Gravity"> 
<DataArray  type="Float64"  Name="Self-Gravity"  NumberOfComponents="3" format="ascii">-4.0176640524664486e-05 -1.7983366915832398e-06 -6.2914136495906240e-05  -3.0819688732974241e-05 -9.8165932093565407e-07 6.9030568691702231e-05  -1.1010218693984957e-04 1.2065877268171715e-07 6.5218705815230167e-05  -2.4389438225172990e-04 2.3131182668645313e-06 6.1566694415177487e-05  -2.3732207146337275e-04 -6.1811090347098104e-07 2.9028538947509959e-05  -3.9546569832157440e-04 4.7499618032848240e-06 2.3007850256088760e-05  -4.2372835401549564e-04 -7.1267689300203532e-07 3.6742697675098696e-06  -4.2330214689152636e-04 -5.1370225917302140e-06 -1.9746659354305648e-05  -2.6365596692045143e-04 1.1409555775235249e-06 -3.3083597084289443e-05  -2.3316022298834087e-04 3.5507584944954151e-07 -5.5991638403067579e-05  -1.0763125061915045e-04 5.3877203829322586e-06 -5.3900909142870140e-05  -1.4360098348346943e-04 1.9750793384206401e-05 5.7592100768012390e-05  -1.5698143245482661e-04 -1.7805370957019967e-05 -6.5759492895440275e-05  -3.6220801876204843e-04 1.7169858465786675e-05 7.6053474063504540e-06  -2.4891403639382029e-04 1.9059307950137038e-05 -4.9349455711781433e-05  -3.1928134082416992e-04 -1.7127755877373385e-05 -3.1459570794886100e-05  -3.2324366300156909e-04 -1.9079741778433008e-05 3.2880375785224190e-05  -1.6678252336926820e-04 -1.7654182424514365e-05 6.3302516005871710e-05  -5.9366342776579318e-05 1.8181288716410687e-05 -6.2389239084894584e-05  -2.6128519461446022e-04 2.0970350855712912e-05 4.8682394538280836e-05  -1.9325737279790836e-04 3.8254132430196871e-05 5.1762061383736259e-05  -2.9088727588111844e-04 4.0994175057774958e-05 3.4245314034970386e-05  -2.0146130136326488e-04 5.4715370268499211e-05 2.9797300956789999e-05  -2.4679192382148681e-04 4.4681608946200059e-05 1.1845087864018054e-05  -1.5434721182212824e-04 5.6104521041642541e-05 1.3436576398553818e-05  -2.2414558366721331e-04 5.2406446622618425e-05 -6.8707146367987109e-06  -1.4257640583855783e-04 6.3951254386822355e-05 -7.2230542143081519e-06  -1.7380914868302274e-04 5.6809035022233029e-05 -2.4718077594022725e-05  -5.1869838759665022e-05 5.4724887704967903e-05 -2.2687996625723085e-05  -8.4303418042466958e-05 3.8296322910031336e-05 -2.7534149330238893e-05  1.0786776438383134e-05 5.4677952931056863e-05 -3.9036651910208816e-05  -2.9640354134756962e-04 5.1728023121455268e-05 -2.2480532631727211e-05  -2.5957052364267873e-04 -1.9470750656111904e-05 -4.3325253767658352e-05  -2.4311999904260564e-04 -3.2870995432860593e-05 -3.0395539144781296e-05  -3.2038486771820567e-04 -3.0840858574175042e-05 -2.0074300699391447e-05  -3.6186878084013089e-05 4.2943836893883497e-05 -6.1400889202798065e-05  -1.5008690686872306e-04 3.5056224359491751e-05 -5.3662771479530062e-05  -2.1389346150645747e-04 -3.7669790589978366e-05 -5.1688460971180996e-05  -1.9662915167028530e-04 -5.0500804974521150e-05 -3.0124919533908044e-05  -3.3932824684251747e-04 1.0917530206788141e-05 -9.7924567940733704e-06  -3.2791557011686720e-04 3.7731737081978293e-05 -3.1610056304603575e-06  -3.3363518182766641e-04 1.5640903395461153e-05 3.0762456122515613e-05  -5.3249284620806291e-05 -2.3217794350235012e-05 7.6553141536077099e-05  -2.4682311649286409e-04 -1.6466692303294605e-05 4.5609555656947378e-05  -2.5199132608747871e-04 -3.3061993420779782e-05 3.2452151609479643e-05  -6.8690222389651814e-05 4.3697941539460288e-05 2.3005118170827711e-05  3.6449591884177252e-05 6.0546785348666869e-05 -2.4093502787820361e-05  -7.7995837146679466e-05 3.6271102777225897e-05 5.5231428262173649e-05  -3.6616296334573820e-04 -3.5729559868843977e-05 2.0244064852876045e-05  -2.3500077840315638e-04 -4.1163457334082028e-05 1.6518366747160693e-05  -1.6224150455942805e-04 -4.8291673274681553e-05 3.6696543577151338e-05  -1.7732217692871942e-04 -6.0146461558272772e-05 2.1784286125339835e-05  -5.4234684270286188e-05 -5.5095628788599286e-05 3.8470719900170986e-05  -2.2671776898162864e-05 -6.9448505685774426e-05 2.2754927400590583e-05  6.2533510905459587e-05 -5.7792859490587417e-05 2.9905167975799200e-05  9.0710582177300838e-05 -5.6642061056847320e-05 1.1095909375820578e-05  1.7890440599759814e-04 -5.7167499448664260e-05 2.8691353087678301e-05  1.7629893786490810e-05 -6.3958514797534977e-05 -2.2794641491092128e-06  1.1843713400632897e-04 4.9883718170389386e-05 -3.3238020896390035e-05  1.4291046502268865e-04 5.5713811250101994e-05 -1.8889171752163417e-05  2.1148684782277343e-04 -5.5011733706008403e-05 7.0542188674470861e-06  3.0634939499903888e-04 -4.5619207730685875e-05 1.8456413713493111e-05  2.2247022139047483e-04 -3.2444038624510955e-05 -4.2036768009677951e-06  3.7403984025373774e-04 -3.2747170396620787e-05 1.0111579137766244e-05  3.8924192451537877e-04 -2.9940142535907771e-05 -1.3459703744688042e-05  2.5947088872429553e-04 -1.9333302944955498e-05 2.6175163468734337e-05  3.0268870645882223e-04 -3.4182033418481753e-05 -2.0932816149116350e-05  3.7750605481415441e-04 -1.0535486558425953e-05 2.1508549832540257e-05  3.2020407828617760e-04 -2.0910045791507465e-05 -3.0302173670121719e-05  3.2050108695211727e-04 -3.7354940188722523e-06 3.5777936360171474e-05  3.7306682970519368e-04 7.4294833664631887e-06 2.6346617657293023e-05  2.3558663046580069e-04 -3.3825043839145010e-05 -3.7601816532040910e-05  7.1710925225037918e-05 2.6068388177321309e-05 -5.4873594238908732e-05  2.2616093298083860e-04 4.6145746772752800e-05 -3.1331654496101028e-05  3.2031792381993578e-04 1.3671873291888038e-05 4.8870482624868412e-05  2.9308570971194465e-04 2.4578089241915782e-05 3.4399707947200070e-05  3.8658001630429919e-04 -3.3296582085309309e-06 -1.5405796375891568e-05  1.4428780786478605e-04 -4.7886359183957379e-05 4.6799018491378239e-05  2.3522083501565467e-04 -1.4658733109192435e-05 -3.5657658846484701e-05  -1.0072032784084351e-04 -4.6935625291932833e-05 -5.2168926366665444e-05  3.7316082610945568e-04 2.1088549431323773e-05 9.4212766382389667e-06  2.6068244597186933e-04 -1.4670580030831578e-06 5.7921855888334052e-05  2.0388555948927054e-04 -2.4754430008580041e-05 -5.9008817259228358e-05  1.9841174212658353e-04 2.7579815084114808e-05 4.9049560858637674e-05  2.1663121092468121e-04 4.2364402442409668e-05 3.7861270828164923e-05  2.1467175639529990e-04 -4.7173302711434116e-05 -2.7023379395395687e-05  1.0837020990584926e-04 6.0611208238694910e-05 -6.1699936651071060e-06  1.9245320931543695e-04 -4.3383132674860753e-06 -5.6333069874926840e-05  3.1473261095802145e-04 4.6858192925329237e-06 -5.0016422567482772e-05  1.2598291547745758e-04 4.6517330864485239e-05 4.6971046494680259e-05  1.1720058745096942e-04 4.9007593365164491e-05 2.4219373823485435e-05  9.1093087010442474e-05 2.5187793224374796e-05 5.6383065798962110e-05  -1.8687998072323576e-04 -5.0302136781218900e-05 -2.4768497193366327e-06  2.6898384774786191e-04 4.5507242289110199e-05 -1.5822305330668892e-05  2.6850288341821098e-04 2.2253299925525474e-05 -1.8457525451506998e-05  -8.6556683289266682e-05 -5.8537047653414111e-05 -3.5189941182123385e-05  1.1720345078021818e-05 -5.4244206641426685e-05 -4.4820300794102287e-05  1.2093043799539068e-06 -3.7038991863251613e-05 -5.9097513555690392e-05  1.2211300391028320e-04 -1.9342044525244279e-05 -7.7109291561469314e-05  1.9892917839775949e-04 3.7837822307185144e-05 -5.4191598201418247e-05  -1.0996563629443871e-04 -4.7016708924990968e-05 5.6103286980324807e-05  2.6259941595545825e-04 5.6803287842917455e-05 2.1294512247860696e-05  3.7823989007730144e-05 -3.4085145765284266e-05 5.5961908019176188e-05  6.9402847482592794e-05 -2.1694055258032717e-05 6.9514755154982666e-05  4.7970557799485424e-05 -6.9315942991057943e-05 -2.4522992814706938e-05  9.0470494029381646e-05 4.2593501126088334e-06 -7.8967283724149336e-05  3.2021715099379834e-05 5.1341733917838112e-05 3.6690176035231777e-05  1.8931484691990354e-04 1.3296482135483057e-05 -5.8897787286752509e-05  2.3729460201511046e-04 1.8303007158379677e-05 -3.8429165258054041e-05  3.0660200124584262e-04 1.1859557658092324e-05 -2.6079732466099857e-05  3.2048105953496199e-04 1.5566334578560142e-05 -1.0792427600692131e-05  4.1314406215826492e-04 5.0090827512071748e-06 8.5731219507240424e-06  1.6090625108867784e-04 -2.9220467768167524e-05 6.1067315387308639e-05  2.3081275642196011e-04 -3.5517502282179742e-05 4.5073995090144691e-05  1.6218337578673961e-05 6.7921932824488066e-05 2.8736890990984362e-05  3.2321154364241209e-05 -4.9060786440534861e-05 4.9663561858651864e-05  -1.7481023992818701e-04 -6.4817077225939266e-05 -1.8830424848196161e-05  -3.6016577673043032e-04 1.7764634512255585e-05 -2.7744179620153736e-05  -5.9831960977229260e-07 1.5667313635977453e-05 5.7361810692930370e-05  -4.8826499516646697e-05 6.7425900846477044e-05 1.2783147168725639e-05  1.4518887451225960e-04 -4.1112699674723760e-05 -5.2135625307734989e-05  -4.0423600433054350e-04 -1.6645457318968926e-05 1.2854931119845436e-05  -2.3929370789535582e-04 -4.4152664887810031e-05 -1.6499263917922339e-05  -3.2916398815537826e-04 -4.9813490441224205e-05 -5.2226395056428838e-06  2.9532387714975388e-04 3.6034766963994682e-05 1.5890689423918323e-05  1.6207787702141613e-04 -6.6255239086025061e-05 -4.5557215980555824e-06  1.9151341892906313e-04 -3.9341487960195777e-05 -9.9531798769813276e-06  3.4739925971878872e-05 4.3981199210663683e-05 5.8487139649133739e-05  7.1339951293808296e-05 8.6134888894229943e-06 6.9507548219094589e-05  1.5375417825164278e-04 1.3563966327544601e-05 4.8652420237861864e-05  -9.7466496228086486e-05 -6.8232311824794494e-05 5.6390634437483871e-06  -3.9132277008767850e-05 6.9313077437698281e-05 -9.6412017850658476e-06  -2.5388696561261584e-04 4.3966426650116948e-05 -4.0114025891661437e-05  -4.0384037183725563e-04 -1.8461317165034228e-05 -8.3960898907713357e-06  -1.7506758878669377e-04 1.7309924168289459e-05 -6.0876122319691788e-05  3.4177979899821927e-04 3.3537543309424537e-05 -1.3175237297426832e-06  5.8389729048825487e-05 4.0511359570149411e-05 -4.9613086796178495e-05  -1.8586573923389167e-04 -3.3105841102469556e-05 4.9047094589590744e-05  3.5907587994685219e-04 -3.5102576634958022e-06 -3.5891571101630565e-05  -8.1552590022407432e-05 4.1051273693367107e-05 3.4501791562453835e-05  -9.7375849694297380e-05 -3.3328878778619335e-05 -6.5153740695043444e-05  -5.2850152214382101e-05 -5.3856721062485397e-05 -1.3566625787373898e-05  2.2626660375683042e-04 -4.0629300763811541e-05 3.4953959972096826e-05  -3.3556072039836617e-04 3.3762542274452128e-05 1.1732583330213381e-05  -1.9968703873645332e-05 -1.9078938953456452e-05 -6.7239719252034543e-05  -3.1420499463099037e-04 2.9934658463926147e-05 -3.5564555959730869e-05  4.0449712170239683e-04 -1.7189045440878170e-05 2.3350735226960614e-06  2.1909360115376125e-04 6.3925750327069311e-05 -1.1639881855800222e-07  1.1812106156122468e-04 5.7410649160807148e-05 1.4483019964249961e-05  -3.8033266808639647e-04 -3.3489250200220165e-05 -3.1615214443881795e-06  7.5757182672951242e-05 -1.9543575800032253e-05 -5.1383186045258679e-05  -8.1087186173829965e-05 -3.1003641262910775e-05 5.8433552528546998e-05  1.7978304053379646e-04 1.7098108867387047e-06 6.1613242314336058e-05  1.6541576588274435e-04 -5.8902711024232452e-05 -1.8486351770194712e-05  -3.8286373477159578e-04 3.1324600492011618e-05 -1.9896604215401562e-05  3.9335635058634073e-05 6.5158847654642565e-05 2.1100980719847383e-06  2.2176226438536313e-04 -1.4199893965295571e-05 4.4270053014329751e-05  1.8870255331782378e-04 -1.4734545954291719e-05 7.1619862021805790e-05  1.3071866170738793e-04 -5.6614297028230960e-05 -3.5349115913857990e-05  3.3157018045490135e-04 5.7349184933078612e-05 1.4731171693244810e-06  1.1553461821731626e-05 8.3354966354603267e-06 -2.2806108557314781e-06  1.8011261304541425e-04 3.1869335179663473e-05 -4.1634674034450477e-06  -2.9258435278143506e-04 -1.1108713078615091e-05 -2.2936330088190061e-06  1.3057331026568447e-04 -3.6231912848145224e-05 -2.4027070977270796e-05  -2.0126806686211391e-04 2.5020376606061387e-05 -1.9002066197940130e-05  1.0264578113450172e-04 -6.7519201999103044e-06 4.2546062714223682e-05  2.5476015660565816e-04 -7.4049361079846214e-06 -2.4870770161418263e-06  -5.5126051110688036e-05 -4.3222494269647672e-05 2.4169887676029292e-05  -1.8493106693296332e-04 2.1199452728659186e-05 2.4438884314273506e-05  1.4136577565519615e-04 7.0328399401738191e-06 -4.0421141477672884e-05  -1.5677532608008432e-04 -3.3968482652214274e-05 -4.1293577955735549e-05  5.6341450832109906e-05 2.9275377755529484e-05 2.9659419524610945e-05  -4.2068226068224244e-05 4.0960300741388025e-05 1.6102292982618262e-06  -1.1756003119486407e-04 -1.6495197368247854e-05 5.4757510331015319e-05  5.2675886166951553e-05 3.1746600691442182e-05 -3.4584531565948315e-05  -8.3541546693868200e-05 1.0940684362069806e-05 -5.3017350545953699e-05  1.6155948005433475e-04 -3.3329259978934613e-05 1.5576870379695933e-05  2.5695527578424061e-04 2.0046499769109910e-05 1.8570288222779888e-05  -2.4886598973913567e-04 -2.9665469201976845e-07 -3.3960371467611330e-05  3.5092918831223836e-05 -2.6429408022929344e-05 -5.7605220538594394e-05  -6.4531128530251122e-05 -5.5493025755239526e-05 -2.0011127890200734e-05  -2.2858684183413847e-04 -3.4227898843813069e-05 3.1730537163836804e-05  -2.0422088976052811e-04 -4.3539224508810303e-05 -1.5974838604741230e-07  2.6634225874048800e-04 -1.8139774815363565e-05 -3.6950714231230423e-05  -3.4168678709064614e-04 1.7343834293230190e-05 4.1334642021682943e-06  5.5018185503353164e-05 -3.8916790110428071e-05 5.0877492564002716e-05  3.0912278874267371e-04 1.8732769239167051e-05 -2.1919626244059934e-05  -2.9452899693863615e-04 -5.2087724556293833e-06 3.0827999936520888e-05  -2.3647035328817789e-04 4.5572060556279531e-05 6.4720006977713899e-06  2.8683472029617597e-04 -1.4980659610840204e-05 3.1493281298658464e-05  -7.3559405609387716e-05 1.5678819556349337e-05 5.1024766615186132e-05  1.1409150653217916e-04 5.5297398439367189e-05 2.0122114222260036e-05  1.0159989836853084e-04 5.7555156208348130e-05 -1.9150127652806977e-05  -1.2169566424409887e-04 5.0553832504300687e-05 -2.7675621776561308e-05  2.5054410409243119e-04 -4.0657923765176658e-05 -5.4951727952832597e-06  -1.0435494902892643e-04 4.7428619237447690e-05 3.5329728442647483e-05  8.5616926844224296e-05 -5.6910205915463672e-05 5.0908575810521781e-06  1.7244751856236457e-04 2.1235559243253637e-05 5.1234269460481730e-05  -3.0804255754752748e-04 -2.9582631180698276e-05 -2.3768157572546537e-05  -4.1725057728442541e-05 -2.2215773787913749e-05 -1.9870290181661423e-05  -1.0388631377899756e-04 -1.0900016247062139e-05 2.5686766299379428e-05  </DataArray> 
</PointData> 
</Piece>
</UnstructuredGrid>
</VTKFile>