<?xml version="1.0"?>
<VTKFile type="UnstructuredGrid"  version="0.1"  >
<UnstructuredGrid>
<Piece  NumberOfPoints="201" NumberOfCells="657">
<Points>
<DataArray  type="Float64"  NumberOfComponents="3"  format="ascii">0.005400053248242944 -0.004472525341385138 1690.478889690216  -0.0003937628226501522 0.000813800908383808 -1690.478953984457  541.3314319561057 0.0006548846779807826 -1607.739128507526  1029.668620391838 -0.004591631094912645 -1367.632155480637  1417.218348044429 -0.000698654450665382 -993.6336211359184  1666.048458557004 -0.0009332558088093955 -522.3863728340812  1751.79535505947 0.001546917358409249 0.0093356044804163  1666.052165435414 -0.002931203904753525 522.3959767390065  1417.22891983235 0.0002844027726592361 993.6412920843431  1029.680774073915 0.001248452477599741 1367.62455497168  541.3296005004329 0.002104755043877192 1607.736138068436  685.8533828204227 -87.09119509208932 -1469.779092335514  681.3772661895233 67.65233605822921 1506.278352595385  1667.508078950905 -77.53414530810247 -250.6088194853064  1200.614745805545 -84.59830091217316 1127.223893300526  1516.690039036459 78.41899915867933 710.8461192020483  1510.383326075899 78.4182129693677 -723.2315160004222  765.8267174549889 77.95390880581152 -1450.423388291292  263.8876659164741 -77.9555270251991 1607.799289085274  1192.811221085529 -77.95428673501274 -1151.058492720526  830.390517629009 -152.8769241641646 -1189.683411019325  1233.806627744889 -149.8442056167107 -819.3737291869732  846.1541646977794 -214.0505620152046 -787.1228479629797  1192.190614387823 -200.9238526388442 -387.613687501047  748.2101324449953 -254.6781720483101 -329.308001361111  1065.259298861249 -228.659794938315 83.2984269978579  559.6355117302805 -272.0196608259637 150.3012420562154  811.6371284002508 -236.4642937697937 570.1311334401572  292.4012085470168 -264.845146132772 606.3240332587593  519.3688093890048 -216.1994569616161 1001.609026180725  -20.17708703564638 -232.1789088154788 1003.598526853768  1244.498988771544 -185.8907395796895 481.0704964217794  1192.821600977451 77.95643566838382 1151.061876944285  1208.758403021793 150.8352350571582 847.4657324295994  1463.816426888472 144.5492806423377 383.5667921383144  194.24765473442 -172.6464754385299 1342.184702069748  711.3239646716868 -151.422381311049 1265.473872991033  830.2925889836457 144.1660876068929 1226.460307386512  800.2087628797167 210.7499001997604 859.2098488317801  1670.70430106113 -75.64484811017455 250.5783318183678  1473.23971378756 -156.2338866705611 29.02391035176055  1520.056759607215 -78.48999525817739 -703.8553728649823  263.8920564072758 77.95218216275012 -1607.80320097805  1180.932279085631 75.99754564632546 -1166.827841539555  1199.492181416013 150.0260082232973 -864.4640057286969  363.1002812246493 -256.9761502830406 -682.8624797507972  -254.0448472037011 -267.977782783644 574.0049917873611  354.2671145094207 -156.7853771369493 -1378.039813424774  1453.823114642014 146.271256945025 -396.3820563668686  1087.364897129774 211.1526555685398 -477.1852951852943  772.0644516363544 205.5175381417472 -924.3431231202981  609.6587445736136 255.7488730967563 -514.5369732747547  269.3209761305631 240.2098424176492 -899.5657915129677  78.85001231024191 276.7807986105919 -466.9502400984792  -276.1004481048454 247.1136292714067 -830.4117789928339  -455.6321542527465 271.8552147528163 -352.1579564247241  -802.8713624931275 232.3252135317455 -636.4510520523615  -87.6383715244116 287.8183714172955 31.18967025858195  -559.6944952097856 -223.2307366156069 925.384873202409  -773.1686779339727 -246.7820622775359 458.1586316411118  -942.7112217245137 241.4041374468615 -171.9970269147034  -1245.058398026577 188.9686677176356 -436.419236222506  -1326.232579209533 188.5540119363942 39.05128870227119  -1555.487407594464 124.4791000443055 -272.7601849708551  -1576.786197505608 118.1589618054055 254.4933641301724  -1381.848275356889 117.9914711866191 -776.688306358183  -1275.304732188051 174.5071002001785 547.7748618013735  -1645.448291526597 51.61968099322569 -495.2967135753188  -1456.59353908345 97.14854022566571 747.7793117948654  -1400.612015066996 33.13821511368786 -996.6788987409934  -1572.803131903486 -37.4930004910541 -711.3789675100556  -1083.699781699599 146.3805582193105 1015.152211913273  -241.9969880068631 -119.6755560916854 1520.87103892156  -1055.718070378538 -190.9881577392973 754.7716430101055  -1258.608741186175 -50.78612178895033 -1137.716469379277  -1359.890950778099 -119.1623009243708 -806.0858780271386  -1683.193218648716 32.76421299075373 427.4402829378896  -585.7837603071588 192.5052113223792 -1126.034613774267  -1198.481846527621 62.53473906641556 1177.460341753582  376.8475402425428 194.5184146920951 1195.193335657947  -1621.885171744305 -97.62796543812442 -286.5361429389924  -1019.702082468433 20.28762142926518 -1369.458518431436  -794.5024782683988 111.4067002896478 1358.395869319561  -979.9809859372056 -128.179565909897 -1183.703929489983  -1026.292196738032 -190.7335664889196 -793.7752318890608  -864.9795136324925 214.7178773362688 761.3802517855912  -441.7668178494685 -278.3553803570892 108.8216356583285  -836.6576731045352 18.76643707126168 1481.165424931039  -1236.255172412197 -27.11125261571551 1187.174704769255  -592.3817741911554 -191.2727255587279 -1130.018662735573  -594.4498113460202 -243.677838274748 -699.9636448293107  -510.3826485016494 -121.2015559129267 -1453.433622824505  888.6192790577873 248.4678710720685 -47.71011477641746  -1194.854260777245 -204.8214023249662 299.750947060897  -1438.447167250046 -138.4352402625368 524.4242127569504  313.864763406941 250.2416302714161 784.4363376436628  -113.2924126188573 225.7629100309964 1047.229843357356  -39.23992262956847 170.2443663002403 1365.086663191019  -474.5695757533014 71.97387858608002 1571.88158125414  -791.5346824304215 -156.2463582758978 1199.287414412236  413.1708708178343 190.1686070324651 -1207.959864955746  -982.2750734578598 -230.4836685633333 -369.0630747655956  -129.7476204441724 145.9546171030732 -1453.494894227661  -287.4796564699375 62.60726988348143 -1626.871145024119  -195.0298934032743 269.3133961587724 573.9209053138409  -370.1305844009688 -44.31990428534548 1631.864517650219  -126.6414923176381 -236.3864017435456 -961.5967534731077  -799.7298504122169 -71.21552340365801 1445.233119953823  -1232.978202763936 -114.6282430431334 996.2300802557443  -1534.866963096404 -55.11641143682908 748.3648736534491  -1679.39210777833 -71.54386211505167 237.2041829515045  -1744.251667675284 -9.30637605432022 -146.8453662208846  -672.8874668912281 124.0304201613459 -1381.8988125837  -1020.589615265085 137.1846670739865 -1115.178499912411  -149.0567447041734 -271.3542426901339 -553.1909205750538  -59.61078390765137 213.2119567718108 -1138.100840881875  698.8888729543241 253.5451704871582 441.4865305753541  1509.8797024589 -75.02143684572886 736.4481716326031  87.53827693887278 -81.80318190479392 -1619.158429750279  277.0671810283171 -281.1615425701978 -260.3931370446158  -533.5674830671276 184.388534689961 1194.785636072526  1674.629895030179 72.69746401027639 -255.951698852418  1119.604617555387 209.2386084902534 434.8882455210273  1320.700982885954 189.6920501683127 -19.32015217518983  -1337.755625881903 -171.589969562772 -427.4659140649838  -580.7316275010685 271.1111499075493 131.6127961384733  -974.148714791478 233.943128725532 309.2620774371229  -95.0393622072429 -176.4954932648853 -1334.930373794255  -408.2335941012735 -32.24102091335007 -1633.099067871366  -860.593626168635 -51.74382477497087 -1441.012513140466  404.9442133653292 280.0884984503456 -86.37211429853866  47.45240546804379 -286.3496285348682 187.8831511244903  967.5610138564609 -182.3941347535526 919.7994065252996  1677.594232583006 73.62268732996385 227.1737466619911  766.2651870718929 -77.3901270221141 1451.236459728016  -1481.910460782491 -153.9060784343237 41.74475285562526  -313.6427191249085 -190.4417465947704 1234.129553316756  853.6274640003352 139.7744471860299 -1228.981188715974  -1500.907948233999 23.03253706861609 861.2612807609297  393.3924935833866 -214.8685881510833 -1062.999185246117  429.1413111516726 138.674894533339 1424.036826738904  249.7062293976003 278.8353140755486 355.3233733159263  -1089.776630239079 180.967967770826 -793.5227363741185  1465.230085783526 -139.2102340738313 -441.8279242660931  -26.80834132913329 75.13335634416231 1632.158083516327  1327.122893004926 -135.4840889533229 767.6957412882102  -1700.904650068427 68.85876768644638 -38.44632589971135  -905.899674777267 -246.9078330170425 16.3078495831667  -553.2782408192458 -269.3862694997662 -280.1766458817178  1571.75088049682 127.5945413267601 -11.76034190540696  -391.0629726331992 142.2754959697388 1422.092868467604  486.6182292020852 129.2131250914297 -1437.283155106801  -590.6040061777867 21.22484102359924 -1586.673748819657  -640.7860652710895 252.3314525230082 537.1626451831648  1490.155386617363 -129.4850738369997 464.9242090558982  -119.3977283279716 -286.1154245582121 -169.7714300545982  -1123.50686961903 75.10720707138725 -1220.407108214368  -767.8353331808597 63.83046013339835 -1472.895003220293  -490.0560536323546 232.0943035728544 886.2504691931971  -1232.163948185198 -204.5912676817591 -94.5765465790367  -0.004000669003538718 0.0001994858301103181 0.002727310693471513  -558.9369459428129 -112.7991502907538 46.85318682046752  845.1162878459833 44.00405752951369 -7.731178688473059  -336.7064329662733 118.556510386612 372.6298361852986  629.9549467561926 -84.06281564800773 338.99218731054  -410.3932090716338 12.30785978424434 -753.0792632855796  -869.2043567230894 22.39735389707528 0.6239119191317237  166.0785976504223 134.0921599053104 -323.5755577841555  587.0815983614877 -66.10589081900439 -506.6887368018706  -456.6533034665783 -12.56251523688619 730.414282557187  437.9096825583417 99.80901113259129 588.9643572129819  -161.7123316929145 -113.8916586746478 -639.7850056549311  144.6593574584956 -164.4225031770353 3.131055031112071  348.64512
[...]
<PointData  Vectors="Coriolis"> 
<DataArray  type="Float64"  Name="Coriolis"  NumberOfComponents="3" format="ascii">-1.3285725274140390e-11 0.0000000000000000e+00 5.3158015700153530e-14  1.3286300882355534e-11 0.0000000000000000e+00 -4.1012398790931440e-15  1.2617561551043104e-11 0.0000000000000000e+00 5.4407000032189092e-12  1.0807666428611566e-11 0.0000000000000000e+00 1.0299707599056213e-11  7.7606397391258677e-12 0.0000000000000000e+00 1.4187155910802762e-11  4.1022559010768761e-12 0.0000000000000000e+00 1.6760702793120453e-11  -9.2133425950871064e-14 0.0000000000000000e+00 1.7705399448462441e-11  -4.1971643329738365e-12 0.0000000000000000e+00 1.6797149195294937e-11  -7.8364663266350860e-12 0.0000000000000000e+00 1.4291763139938175e-11  -1.0732772198774665e-11 0.0000000000000000e+00 1.0419922843037834e-11  -1.2588015574847244e-11 0.0000000000000000e+00 5.4225260626748959e-12  1.2266701540696036e-11 0.0000000000000000e+00 7.2429540386063147e-12  -1.2336775643283895e-11 0.0000000000000000e+00 7.1133927615414449e-12  2.0587811141677549e-12 0.0000000000000000e+00 1.7480561097475078e-11  -9.3958531056129196e-12 0.0000000000000000e+00 1.2825830011040752e-11  -5.9413607113694348e-12 0.0000000000000000e+00 1.5932314147286059e-11  5.9173308550594400e-12 0.0000000000000000e+00 1.5856382792746566e-11  1.1983543601623250e-11 0.0000000000000000e+00 7.9830922971050433e-12  -1.3210583043117131e-11 0.0000000000000000e+00 2.7681074426093902e-12  9.4704989021320042e-12 0.0000000000000000e+00 1.2514014840439351e-11  1.1180860536191874e-11 0.0000000000000000e+00 9.6766693598174891e-12  7.6575590523143356e-12 0.0000000000000000e+00 1.4396011584062892e-11  8.6071841964391099e-12 0.0000000000000000e+00 1.1331929339926171e-11  4.0654543126498452e-12 0.0000000000000000e+00 1.5570406532910434e-11  4.0458781697368229e-12 0.0000000000000000e+00 1.1166763424344676e-11  -9.8634240332848369e-13 0.0000000000000000e+00 1.4896565020400138e-11  -1.9333138817389865e-12 0.0000000000000000e+00 8.7155112028066482e-12  -6.6882292149277460e-12 0.0000000000000000e+00 1.1593889695888735e-11  -7.6869046847437875e-12 0.0000000000000000e+00 4.4426130995390730e-12  -1.0999429110353535e-11 0.0000000000000000e+00 7.0034836434684636e-12  -1.1599342063117099e-11 0.0000000000000000e+00 -2.3384367095209983e-13  -4.9703525944799346e-12 0.0000000000000000e+00 1.5728675878137776e-11  -9.5039011215904408e-12 0.0000000000000000e+00 1.2616830740282589e-11  -7.9847214913429567e-12 0.0000000000000000e+00 1.4237343477317761e-11  -3.5768395290841514e-12 0.0000000000000000e+00 1.6963212348701921e-11  -1.3221678880396607e-11 0.0000000000000000e+00 2.2917859600741414e-12  -1.1910608267000306e-11 0.0000000000000000e+00 8.4273630108083246e-12  -1.1317490047470544e-11 0.0000000000000000e+00 9.5761552608077411e-12  -9.3911625120461472e-12 0.0000000000000000e+00 1.0711922436715844e-11  -2.0721480583336705e-12 0.0000000000000000e+00 1.7551656042993672e-11  -2.9716106177881294e-13 0.0000000000000000e+00 1.7533298544310008e-11  5.7771510759897080e-12 0.0000000000000000e+00 1.6043694739955218e-11  1.3249105308447269e-11 0.0000000000000000e+00 2.8113988656568416e-12  9.5924322537375746e-12 0.0000000000000000e+00 1.2333667835811106e-11  8.0544001813709711e-12 0.0000000000000000e+00 1.3973657818271214e-11  8.4215497685917806e-12 0.0000000000000000e+00 5.4206640257489478e-12  -7.3280765276344402e-12 0.0000000000000000e+00 -3.9306321720443506e-12  1.3144913619329678e-11 0.0000000000000000e+00 4.2401218239247013e-12  3.6490927513785124e-12 0.0000000000000000e+00 1.6937436150845317e-11  5.1525477390862454e-12 0.0000000000000000e+00 1.4560023563492620e-11  9.9095959224077821e-12 0.0000000000000000e+00 1.0159675354314584e-11  6.3150272110975011e-12 0.0000000000000000e+00 9.0982213387393516e-12  1.0557388399713070e-11 0.0000000000000000e+00 3.8297487179350528e-12  6.1146252721370236e-12 0.0000000000000000e+00 1.2165301609659846e-12  9.9910486700153833e-12 0.0000000000000000e+00 -4.0527787329969807e-12  4.5627883436165451e-12 0.0000000000000000e+00 -7.1071396777438633e-12  7.3852402439880225e-12 0.0000000000000000e+00 -1.1323707707027420e-11  -4.6443722047103812e-13 0.0000000000000000e+00 -1.3973344218479877e-12  -1.0405975925299653e-11 0.0000000000000000e+00 -7.6778472979061208e-12  -5.4961145260503811e-12 0.0000000000000000e+00 -1.1276833096628977e-11  2.0369319651182995e-12 0.0000000000000000e+00 -1.3607575207361296e-11  4.5242947387758645e-12 0.0000000000000000e+00 -1.5763206716741898e-11  -3.7756592977155910e-13 0.0000000000000000e+00 -1.6761311102297975e-11  2.4539629556208904e-12 0.0000000000000000e+00 -1.7356017586048798e-11  -2.2116382761576157e-12 0.0000000000000000e+00 -1.7373370309691730e-11  6.8802343715153782e-12 0.0000000000000000e+00 -1.5237671386260976e-11  -5.4517246031159215e-12 0.0000000000000000e+00 -1.5633758239981284e-11  4.0940243217788808e-12 0.0000000000000000e+00 -1.6820583501503996e-11  -6.3976596460305071e-12 0.0000000000000000e+00 -1.5565763551263214e-11  8.0088553686528033e-12 0.0000000000000000e+00 -1.4110643556869905e-11  5.7187544390554535e-12 0.0000000000000000e+00 -1.5891727398509813e-11  -9.4974151299178708e-12 0.0000000000000000e+00 -1.2604869681729120e-11  -1.3345319337412661e-11 0.0000000000000000e+00 -2.6944723577434123e-12  -7.8528272289651809e-12 0.0000000000000000e+00 -1.3467156891811999e-11  9.2598689376621755e-12 0.0000000000000000e+00 -1.2836975060859658e-11  7.1369935490066396e-12 0.0000000000000000e+00 -1.5069800503362861e-11  -3.4513419384144773e-12 0.0000000000000000e+00 -1.6975913668241789e-11  1.1724157676362253e-11 0.0000000000000000e+00 -7.5349510621496051e-12  -9.5781754740117745e-12 0.0000000000000000e+00 -1.2369802110412227e-11  -1.2401722095526401e-11 0.0000000000000000e+00 4.8228592991306254e-12  2.4960373374163162e-12 0.0000000000000000e+00 -1.7380027195765176e-11  1.0966546421642221e-11 0.0000000000000000e+00 -1.0307807204213006e-11  -1.1849721783389498e-11 0.0000000000000000e+00 -8.6586773356550319e-12  1.0681477484479405e-11 0.0000000000000000e+00 -1.1030496655483604e-11  8.2475779057275584e-12 0.0000000000000000e+00 -1.3151569886764609e-11  -8.3492937444607010e-12 0.0000000000000000e+00 -1.1597130349792879e-11  -1.3867454394943257e-12 0.0000000000000000e+00 -7.0181045145353631e-12  -1.1778020706279876e-11 0.0000000000000000e+00 -8.4102552507518783e-12  -9.4166227847435150e-12 0.0000000000000000e+00 -1.2524342511552313e-11  1.1767654420222075e-11 0.0000000000000000e+00 -7.5907654304553835e-12  8.3119113416570869e-12 0.0000000000000000e+00 -8.6143095039433117e-12  1.2889981981459759e-11 0.0000000000000000e+00 -5.8372409802355949e-12  5.8198389584402644e-13 0.0000000000000000e+00 1.3086947463457084e-11  -3.1748505617231258e-12 0.0000000000000000e+00 -1.5774453792941681e-11  -4.8158961854776815e-12 0.0000000000000000e+00 -1.6414246699632674e-11  -9.5124728726784399e-12 0.0000000000000000e+00 4.6227091328736076e-12  -1.1930687767302549e-11 0.0000000000000000e+00 -1.6078811320014660e-12  -1.3321688904165510e-11 0.0000000000000000e+00 -4.8271133933890503e-13  -1.2832617143834827e-11 0.0000000000000000e+00 -5.0054353455349266e-12  -1.1442479454068302e-11 0.0000000000000000e+00 -9.3121678609811141e-12  1.2461935282466528e-11 0.0000000000000000e+00 5.2284034971559344e-12  4.2225451841470465e-12 0.0000000000000000e+00 -1.3767551138553214e-11  1.3425311694303842e-11 0.0000000000000000e+00 -1.5580959278324747e-12  1.3207026364531127e-11 0.0000000000000000e+00 -3.1549361221884556e-12  -7.3894986312497231e-12 0.0000000000000000e+00 -3.0119164086589261e-12  -1.3000489778939509e-11 0.0000000000000000e+00 -3.8809417404345703e-12  1.1201363308407872e-11 0.0000000000000000e+00 -1.8043037288586005e-12  -1.1906130372450701e-11 0.0000000000000000e+00 -8.2788502265366598e-12  -8.6835868553272632e-12 0.0000000000000000e+00 -1.3590674778922096e-11  -6.1019212208089321e-12 0.0000000000000000e+00 -1.5672975157448838e-11  -1.9400535732496265e-12 0.0000000000000000e+00 -1.7379230641283813e-11  1.1537673206857437e-12 0.0000000000000000e+00 -1.7533771138040245e-11  1.2406633483055894e-11 0.0000000000000000e+00 -7.5409139071093878e-12  1.0278492194051808e-11 0.0000000000000000e+00 -1.1706318368353574e-11  7.1156649990490489e-12 0.0000000000000000e+00 -2.3389177295177166e-12  1.2420805689608788e-11 0.0000000000000000e+00 -7.9045488704905169e-13  -5.4147070506208447e-12 0.0000000000000000e+00 1.0395469116705820e-11  -6.2153081036082360e-12 0.0000000000000000e+00 1.5867579969919297e-11  1.3411443777827098e-11 0.0000000000000000e+00 9.5883087593966664e-13  3.4438157594745305e-12 0.0000000000000000e+00 4.4187098518370229e-12  -1.2162192197176141e-11 0.0000000000000000e+00 -6.6654442169384681e-12  2.1013107738964753e-12 0.0000000000000000e+00 1.7502305551087612e-11  -4.7318393302500214e-12 0.0000000000000000e+00 1.4945521579802159e-11  1.5744711043747778e-13 0.0000000000000000e+00 1.6827562279939613e-11  4.2636872590152791e-12 0.0000000000000000e+00 -1.6362757204910119e-11  -1.7038713944709082e-12 0.0000000000000000e+00 -9.0615579247526544e-12  -3.6307900703295240e-12 0.0000000000000000e+00 -1.3749312514883737e-11  1.3254264963103164e-11 0.0000000000000000e+00 -1.2656595285116081e-12  1.2985549074581885e-11 0.0000000000000000e+00 -4.3452631594668565e-12  1.1685836722495819e-11 0.0000000000000000e+00 -8.8394588425841914e-12  1.1411837545262398e-12 0.0000000000000000e+00 6.4669673107041221e-12  -2.5511446925012142e-12 0.0000000000000000e+00 7.5340181936502215e-13  -9.2528767059480168e-12 0.0000000000000000e+00 1.2087152147335244e-11  -1.9092982290380027e-12 0.0000000000000000e+00 1.7554145816833790e-11  -1.1955766458776396e-11 0.0000000000000000e+00 8.0599391316466276e-12  -4.0331524770740403e-13 0.0000000000000000e+00 -1.7431515741134387e-11  -1.2648610894802574e-11 0.0000000000000000e+00 -3.9841570143470658e-12  1.1263122644803032e-11 0.0000000000000000e+00 9.7163524811985717e-12  -6.8676429246028605e-12 0.0000000000000000e+00 -1.5074867916283207e-11  1.1652901247352291e-11 0.0000000000000000e+00 5.2863769849245907e-12  -1.2972133547309647e-11 0.0000000000000000e+00 4.8433909426867861e-12  -4.7140980389763445e-12 0.0000000000000000e+00 3.9735599583267299e-12  8.0304899888609892e-12 0.0000000000000000e+00 -1.3652075440184263e-11  4.0048555318193810e-12 0.0000000000000000e+00 1.6835688928333443e-11  -1.3384736135754957e-11 0.0000000000000000e+00 -2.8368453570779072e-13  -7.0278877483131479e-12 0.0000000000000000e+00 1.5161847632468871e-11  2.6837358619117570e-13 0.0000000000000000e+00 -1.7668936757937041e-11  -1.8367415982243188e-13 0.0000000000000000e+00 -1.3272192453133764e-11  3.5640311382484764e-12 0.0000000000000000e+00 -8.6028282563397002e-12  7.9486063643125839e-14 0.0000000000000000e+00 1.7708899030787883e-11  -1.3041657641529948e-11 0.0000000000000000e+00 -4.5321964928660834e-12  1.2908133378592040e-11 0.0000000000000000e+00 5.5521189300690134e-12  1.2611478477310585e-11 0.0000000000000000e+00 -6.0713685750451239e-12  -6.6198967607446858e-12 0.0000000000000000e+00 -9.5323169742379669e-12  -4.2190213236320742e-12 0.0000000000000000e+00 1.6814788306134348e-11  2.2839123855215527e-12 0.0000000000000000e+00 -1.9464768545219304e-12  1.0161081853259621e-11 0.0000000000000000e+00 -1.1795073254876214e-11  1.2106457481412884e-11 0.0000000000000000e+00 -7.9936434456813056e-12  -1.0193461921263291e-11 0.0000000000000000e+00 -6.8848477780500306e-12  1.0121831485840520e-12 0.0000000000000000e+00 -1.6120755692925245e-11  -2.6869919135369524e-14 0.0000000000000000e+00 -3.9523433075609287e-14  -6.3406952043570863e-13 0.0000000000000000e+00 -8.9733827610949819e-12  9.2796721669170192e-14 0.0000000000000000e+00 1.2920149024704249e-11  -4.9986624908406984e-12 0.0000000000000000e+00 -5.4763888209085849e-12  -4.3960895280063946e-12 0.0000000000000000e+00 9.8755254043609440e-12  9.4318561594284199e-12 0.0000000000000000e+00 -6.2703939126807145e-12  -1.6962459268107401e-14 0.0000000000000000e+00 -1.3224935880925764e-11  4.4206236643373728e-12 0.0000000000000000e+00 2.6926860349963800e-12  6.4721130110322117e-12 0.0000000000000000e+00 9.0893009520041889e-12  -9.1520662230170139e-12 0.0000000000000000e+00 -6.9680240831605345e-12  -7.5786133055330245e-12 0.0000000000000000e+00 6.8007147576577392e-12  8.3700462116603823e-12 0.0000000000000000e+00 -2.5627068474648892e-12  -6.4905483472733642e-14 0.0000000000000000e+00 2.4193582595840418e-12  1.0265340324248663e-11 0.0000000000000000e+00 5.2089506962698516e-12  -8.2970283227343031e-12 0.0000000000000000e+00 -2.1636495243267361e-12  -1.0884935849887552e-11 0.0000000000000000e+00 4.5482368849163533e-12  4.1340659756007949e-12 0.0000000000000000e+00 -9.2882970609044282e-12  5.7456434680786601e-12 0.0000000000000000e+00 -1.2755990995041071e-11  -7.1098202473188522e-12 0.0000000000000000e+00 1.2710995955286730e-11  -1.1502497777986174e-11 0.0000000000000000e+00 -1.7328981326460710e-12  -3.3421897379762623e-12 0.0000000000000000e+00 2.9899917565206244e-12  6.2392579693247920e-12 0.0000000000000000e+00 1.1191652654010249e-11  -6.2946089305955131e-13 0.0000000000000000e+00 1.1603339290425783e-11  -6.7806018525051301e-12 0.0000000000000000e+00 -1.2421518706621218e-11  1.0501579426879896e-12 0.0000000000000000e+00 1.5242221552215398e-11  1.0419633125048494e-11 0.0000000000000000e+00 -3.1643649423131290e-12  -4.3064997599857410e-12 0.0000000000000000e+00 -1.4513533379430428e-11  6.3154604959563103e-12 0.0000000000000000e+00 1.3913117034741262e-11  1.7825142693648958e-12 0.0000000000000000e+00 1.1413200698438309e-11  6.6164920732163108e-12 0.0000000000000000e+00 -1.3377196090938056e-11  1.1998591493634624e-11 0.0000000000000000e+00 3.0888117978853938e-12  3.7707351492470053e-12 0.0000000000000000e+00 -5.5715638080718953e-12  -3.5374324756247867e-12 0.0000000000000000e+00 -5.3843154916645899e-12  -6.7923170589572260e-12 0.0000000000000000e+00 6.1552444562952299e-12  -2.7325155325461656e-12 0.0000000000000000e+00 -1.2877258483525182e-11  6.9326730898301277e-12 0.0000000000000000e+00 5.2034721204592436e-12  1.7117146629988699e-12 0.0000000000000000e+00 -3.9036501722681758e-12  1.0856291361443929e-11 0.0000000000000000e+00 -8.0900937987865556e-12  -4.9921399511410049e-12 0.0000000000000000e+00 1.4134261872589731e-11  -1.9360965142942050e-12 0.0000000000000000e+00 2.1323765409468813e-12  4.0473218316243459e-12 0.0000000000000000e+00 6.1335469434075269e-12  </DataArray> 
</PointData> 
</Piece>
</UnstructuredGrid>
</VTKFile>