<?xml version="1.0"?>
<VTKFile type="UnstructuredGrid"  version="0.1"  >
<UnstructuredGrid>
<Piece  NumberOfPoints="201" NumberOfCells="657">
<Points>
<DataArray  type="Float64"  NumberOfComponents="3"  format="ascii">-0.04271561671192947 -0.01837068114275377 1232.008085897089  -0.02154027524980703 -0.002539841159905196 -1232.048392217985  2324.417288038474 0.01127703931630774 -1172.312534672421  4420.030775671567 0.001987719328943701 -998.3828272310201  6081.381901931619 -0.001846858562889683 -726.568080025158  7147.024025332806 -0.005294714067538518 -382.3785394169129  7514.043154473476 -0.02459800177160052 0.009910571498101751  7147.034296230192 -0.03215632890093301 382.368713377388  6081.380007995586 -0.01279371176866792 726.5396754291148  4420.016718681167 -0.004059422957689583 998.3940683349457  2324.421299231417 0.02416594007644608 1172.263660716262  2944.3051054624 -2187.212929625292 -1072.444249958835  2925.309457888892 1699.016891503457 1098.830500995233  7152.420540059321 -1945.548240140412 -183.502275041838  5152.198017849944 -2123.899878303904 823.7680366283287  6506.635259384812 1968.087349321921 520.1558287400691  6479.646382426115 1968.025763670011 -529.1981022144058  3287.580122020601 1957.682088842542 -1058.427980031595  1133.046084563447 -1958.035987559382 1172.290936055859  5118.898722822696 -1957.104338923818 -841.0967126701654  3563.272305210669 -3840.054233576194 -869.0619071359322  5292.829166748364 -3762.796796417265 -599.2910393020841  3629.086937870824 -5378.738291867887 -575.6665191451998  5112.445832197926 -5046.996518677937 -283.7055762303972  3207.861907111363 -6402.52726579397 -240.9863460632003  4567.432251735979 -5745.645396818454 60.97288531761075  2399.090544254897 -6840.224825078254 109.9776171143972  3480.307270868734 -5943.216262099856 417.1190502746966  1253.722594863074 -6659.963693126875 443.4863758465607  2227.856770721151 -5433.769497078026 732.0508905533402  -86.57275537100128 -5836.792840175928 733.4430503529553  5337.215823251177 -4668.713084767824 352.0391730644139  5118.945185257967 1957.08183220803 841.0950936157889  5185.412319718119 3787.672834027347 619.8104529656617  6278.224844062927 3628.757245471278 280.7662757869216  833.6296671203088 -4338.252320774835 979.6536214418294  3052.59061977732 -3803.955954429151 924.0508276244473  3563.02724971222 3621.150754877759 895.8247123749118  3432.197665699323 5295.858903137134 628.2265784074364  7166.137049396816 -1898.147031860983 183.4818194080322  6318.139251503892 -3922.368967315695 21.25266534715428  6521.077475773442 -1969.837876496227 -515.030048663894  1133.039561519877 1958.048087989005 -1172.243564492521  5068.046262672952 1908.051651151059 -852.5819943351531  5145.745506431196 3767.32519760477 -632.2140464766795  1556.955215221122 -6461.482636484009 -499.4240143008358  -1089.297965017302 -6739.049119228386 419.8758572929978  1520.460094507035 -3939.362883859641 -1005.732541488263  6235.362875718863 3672.087955351793 -290.1539595424812  4662.910076549795 5304.900145082388 -349.2093327883116  3311.740322663956 5164.137676113714 -675.7526942215781  2614.006851248854 6429.919300735976 -376.4287102435299  1155.094201168617 6038.958590147486 -657.605496966753  338.0132432192367 6961.035261657324 -341.6038499858985  -1184.083272971558 6213.190532262548 -607.1126302774087  -1953.388560390511 6836.2797669313 -257.6778523877917  -3442.978778701547 5839.117162343886 -465.5916535013887  -375.7398060799135 7239.588535453838 22.83120808733488  -2400.674708458932 -5610.738075293657 676.4497848434237  -3315.134877456825 -6203.286186742496 335.2229756465511  -4041.922960092458 6067.185277908859 -125.9002301530493  -5339.48369468483 4746.241216925861 -319.4101251087376  -5687.162511172609 4735.345000520697 28.58855556907874  -6671.53545722098 3124.338886286334 -199.6957961660914  -6762.928308039145 2965.604931091266 186.2968669137791  -5928.037426227386 2961.901907151365 -568.1841282175716  -5469.648762809161 4382.35287331681 400.8735882067393  -7058.40858440288 1295.339101856128 -362.5671051800556  -6248.800609136653 2438.342276157221 547.0840575986585  -6010.046551442084 831.8073708414 -728.7567868943452  -6747.499152614566 -940.8462251443431 -520.5358713303867  -4649.579618708085 3676.187992199817 742.0542412814597  -1038.893846816274 -3006.435459051887 1109.244671638161  -4528.153223097622 -4797.89064809028 552.0402477280252  -5401.312366417001 -1274.843724775855 -831.409354552945  -5833.894038066955 -2991.490712334491 -589.6487169191585  -7220.234220562756 822.0909841324825 312.9262632646969  -2513.211746664037 4837.34687486001 -822.6892788025103  -5143.438351213455 1570.00435035453 860.3514492680069  1616.9286635864 4888.226883071196 872.9707084711962  -6956.477796396586 -2450.098602831381 -209.8064741154071  -4377.136101443793 509.3051734502376 -999.7586527525533  -3410.150443701179 2798.10465378911 991.6199555060645  -4205.306613243782 -3219.042810021194 -864.7861514964898  -4402.009927324742 -4791.549769709681 -580.517670574635  -3709.799433807338 5395.620772807634 556.8458383267564  -1893.790708660014 -7000.422862140296 79.6479370442464  -3591.936883605992 471.1726834350046 1080.668779742815  -5305.687661483728 -680.4989350942831 867.4049298017848  -2541.525499981786 -4806.423080691967 -825.5472417693804  -2549.152757196809 -6125.673529537708 -511.9623075835971  -2190.81271826236 -3044.586299561945 -1060.506361462413  3809.83501750388 6245.524752203645 -34.91855391003918  -5123.735242522461 -5145.370824175591 219.3896102838087  -6169.792186567896 -3475.196334353184 383.8278741265207  1345.94434341434 6291.677408043593 573.584998379982  -486.0228707808942 5675.44726470924 765.1715467408075  -168.4213815573137 4277.722384229568 996.3813589138553  -2037.5601700778 1807.79799688619 1146.354015758724  -3396.53010084979 -3925.00187270311 876.0304836344799  1772.806988990235 4779.012842015817 -882.2284089684213  -4211.859064129385 -5792.213983199024 -270.0855449649937  -556.8875461993563 3667.095761863638 -1060.45535229324  -1234.333714593366 1572.634907335842 -1186.091304756063  -836.2433496882304 6772.696290853274 419.7925065428668  -1589.273846571381 -1113.191303624414 1189.645998282434  -543.183161953 -5942.827186430685 -702.8138307237841  -3433.086850288343 -1788.435359868929 1054.68316131284  -5290.258095929318 -2878.06898003393 728.3036070381632  -6584.826589490858 -1383.108482857455 547.5888363518151  -7203.302349463906 -1795.230949549748 173.6963685082498  -7481.676883446379 -233.4788851011543 -107.5446967118348  -2888.191511695901 3115.469307361366 -1008.667082842686  -4379.259759120632 3445.215246895006 -814.9095020940614  -639.1367791512289 -6824.181125629065 -404.6615660758887  -255.7577859016333 5358.958543126002 -831.4057002623966  2996.524993610849 6373.897494817909 323.0125801775436  6477.543662054099 -1882.803581229365 538.8010535634911  375.7910155424886 -2054.90253435956 -1180.421472812472  1187.744336056668 -7071.417794496963 -190.5454498747912  -2289.405226715038 4633.244309402089 872.6614125280547  7182.985932934421 1824.100431737592 -187.4152601487161  4801.107547228228 5256.646333059784 318.2765739664728  5663.40647564708 4763.928757839643 -14.14550299194959  -5737.239630069072 -4308.893209459246 -312.8422954818579  -2489.600498635373 6817.194773628923 96.30816567138569  -4176.902142222913 5879.269774238847 226.3254856721779  -407.815121433652 -4435.114184030465 -974.4132043519542  -1752.860323981675 -809.7505285985046 -1190.606934821372  -3694.424248175545 -1299.291205989386 -1051.600085752433  1735.867519057714 7044.107395440027 -63.22203723292374  203.3604321566731 -7202.491132149171 137.4831047262371  4150.547303504173 -4581.879358661529 672.4965880601338  7195.648013581282 1847.443113172757 166.3377485767759  3289.403139385965 -1943.572250211381 1059.048832112516  -6355.363831380509 -3863.804679084073 30.56342286267896  -1345.808861470435 -4785.744018521768 901.2322371361203  3663.236973179538 3510.641766394691 -897.6263628006037  -6439.74775117947 578.0415490474858 629.9915776138946  1687.558086121277 -5400.628180330328 -776.7376366400197  1842.029642986856 3483.869278001401 1039.154084117541  1070.440197713907 7012.774102948112 259.9630545349038  -4674.478614319052 4545.758312057127 -580.3703154289817  6284.521378753566 -3494.604926694049 -323.3885303436487  -115.1292151957817 1887.376820366387 1189.774829757183  5693.06523104785 -3401.678020859666 561.5670717020815  -7295.502815367137 1727.847431804225 -28.16308201868961  -3883.897703590808 -6206.038246504048 11.91206822708627  -2371.952900200758 -6773.817922854766 -205.039016060001  6741.029455916226 3202.574478381023 -8.624013791029741  -1678.538374959098 3574.250997614471 1037.759047704771  2088.769383321099 3245.865077525968 -1048.81613568182  -2535.849744523105 533.0920220811569 -1157.046873252974  -2747.56727689372 6343.642344757833 392.9658609563222  6391.594939751545 -3250.282590831793 340.2896461538573  -511.9054419914718 -7196.519920988002 -124.2292468792739  -4821.817626608447 1885.702210924778 -891.4887964296381  -3296.271308956867 1602.926391303604 -1074.733522612512  -2101.85946021584 5833.939071413844 647.9099157304606  -5283.599375586396 -5139.049366687899 -69.21901606761597  0.002006044107613666 0.008249117282414242 -0.004094052465273613  -2398.294199636982 -2839.061978113441 34.14893887197661  3626.511241137486 1107.182362693197 -5.640002217442659  -1444.817697399699 2984.256594375954 271.6739633975788  2703.252700426016 -2115.50029578366 247.1608469365226  -1761.521200064978 309.7095694320674 -548.6992113350693  -3729.92451438926 563.4912284559235 0.4506491947320843  712.6479323608282 3375.535933021963 -235.9264698583615  2519.491615134466 -1663.50865823905 -369.3588713966755  -1959.99643590316 -316.1073464605542 532.2463987854989  1879.258607630759 2511.723623924611 429.3820179558453  -693.9455057507074 -2866.42856009013 -466.3785200524561  620.5926601237995 -4139.180747043068 2.277179963857677  1496.456267511903 109
[...]
<PointData  Vectors="Coriolis"> 
<DataArray  type="Float64"  Name="Coriolis"  NumberOfComponents="3" format="ascii">-1.8002000343962012e-13 4.2248637643869415e-13 0.0000000000000000e+00  -2.5110870291729760e-14 2.1207293695945479e-13 0.0000000000000000e+00  1.0895192760054239e-13 -6.7144688367650225e-11 0.0000000000000000e+00  1.7832979465363221e-14 -1.1506929715468036e-10 0.0000000000000000e+00  -1.8998280566442770e-14 -1.3589671122838062e-10 0.0000000000000000e+00  -5.3096204322376451e-14 -1.3929012637259069e-10 0.0000000000000000e+00  -2.4338818475770836e-13 -1.3872385425782199e-10 0.0000000000000000e+00  -3.1793391207239496e-13 -1.3939113419329096e-10 0.0000000000000000e+00  -1.2709903056270215e-13 -1.3587821374823004e-10 0.0000000000000000e+00  -4.2025394368023745e-14 -1.1493099527464993e-10 0.0000000000000000e+00  2.3824479367896041e-13 -6.7184909064575190e-11 0.0000000000000000e+00  -4.9408847112924940e-11 -7.9891411225425951e-11 0.0000000000000000e+00  3.8948046291312676e-11 -8.1194707139571635e-11 0.0000000000000000e+00  -2.9364723632196205e-11 -1.3389436340129939e-10 0.0000000000000000e+00  -4.0773134462599134e-11 -1.2134123464901278e-10 0.0000000000000000e+00  3.2771857739524942e-11 -1.3295900251492492e-10 0.0000000000000000e+00  3.2387993234606486e-11 -1.3302877260883093e-10 0.0000000000000000e+00  4.3836661611879605e-11 -8.8329219681029174e-11 0.0000000000000000e+00  -4.7351296078580874e-11 -3.2653439918457860e-11 0.0000000000000000e+00  -3.8114166474817445e-11 -1.2143482425235759e-10 0.0000000000000000e+00  -7.6122527809153448e-11 -8.5586646825647150e-11 0.0000000000000000e+00  -6.4272554371968932e-11 -1.1205465261971020e-10 0.0000000000000000e+00  -9.0617569960411368e-11 -7.5432010194605098e-11 0.0000000000000000e+00  -7.6173589479478788e-11 -9.7034976708383870e-11 0.0000000000000000e+00  -9.6180410192466422e-11 -6.0235500953487709e-11 0.0000000000000000e+00  -8.3907005861869576e-11 -8.4036171538658304e-11 0.0000000000000000e+00  -1.0093617328295726e-10 -4.3840467181291681e-11 0.0000000000000000e+00  -9.3674346300499698e-11 -6.8154783056250227e-11 0.0000000000000000e+00  -1.0646830546200192e-10 -2.4736850214705140e-11 0.0000000000000000e+00  -9.9514818711262652e-11 -4.9729694345178176e-11 0.0000000000000000e+00  -1.0702733945647168e-10 1.9879294604905328e-12 0.0000000000000000e+00  -7.2161097887484696e-11 -1.0355810788173933e-10 0.0000000000000000e+00  3.7890656342004611e-11 -1.2189461619228254e-10 0.0000000000000000e+00  6.5184308013794924e-11 -1.1070741974784626e-10 0.0000000000000000e+00  5.5016843821320343e-11 -1.1950365234619769e-10 0.0000000000000000e+00  -9.2786041611622908e-11 -2.1108968717627207e-11 0.0000000000000000e+00  -7.8326093517510263e-11 -7.6311419393588450e-11 0.0000000000000000e+00  7.2761004296120023e-11 -8.6884086744459948e-11 0.0000000000000000e+00  9.1514663251155944e-11 -7.2965560125181446e-11 0.0000000000000000e+00  -2.8753308668766065e-11 -1.3438061079615300e-10 0.0000000000000000e+00  -5.7840447304415820e-11 -1.1729487327557484e-10 0.0000000000000000e+00  -3.2751517165700975e-11 -1.3357062444113269e-10 0.0000000000000000e+00  4.7470719905672989e-11 -3.2585749985023846e-11 0.0000000000000000e+00  3.7577273480505712e-11 -1.2122887154134500e-10 0.0000000000000000e+00  6.5177797173487565e-11 -1.1002887168257954e-10 0.0000000000000000e+00  -1.0564212077350339e-10 -3.1273496975657537e-11 0.0000000000000000e+00  -1.0747405153405748e-10 2.2144201387177588e-11 0.0000000000000000e+00  -8.5257802086726381e-11 -3.9688166635432458e-11 0.0000000000000000e+00  5.6315749583303794e-11 -1.1906104967477936e-10 0.0000000000000000e+00  8.1550111089174631e-11 -8.9903414820657221e-11 0.0000000000000000e+00  9.1136049022186349e-11 -7.2191831473949212e-11 0.0000000000000000e+00  1.0012970465207156e-10 -5.0733799827717632e-11 0.0000000000000000e+00  1.0583293432944714e-10 -2.4947060067580893e-11 0.0000000000000000e+00  1.0726965446786141e-10 -6.0543407672311288e-12 0.0000000000000000e+00  1.0666006624327305e-10 2.5255775094796264e-11 0.0000000000000000e+00  1.0307059080939897e-10 3.7207668479229697e-11 0.0000000000000000e+00  9.4384723248553499e-11 6.9360087707468293e-11 0.0000000000000000e+00  1.0596767376574658e-10 7.4466405671202429e-12 0.0000000000000000e+00  -1.0002787189489462e-10 5.2559349945215786e-11 0.0000000000000000e+00  -9.6205359007351864e-11 6.3752406968303059e-11 0.0000000000000000e+00  9.0036432059121896e-11 7.5506353459575501e-11 0.0000000000000000e+00  7.3764032254856984e-11 1.0242663300054303e-10 0.0000000000000000e+00  7.0091697171944978e-11 1.0463149570424346e-10 0.0000000000000000e+00  4.6842149338463452e-11 1.2548780778618449e-10 0.0000000000000000e+00  4.4407575327797913e-11 1.2667205149096624e-10 0.0000000000000000e+00  5.0095818900029520e-11 1.2301868603477592e-10 0.0000000000000000e+00  6.9530141028307699e-11 1.0718876975736102e-10 0.0000000000000000e+00  2.0965211196824019e-11 1.3629520473264494e-10 0.0000000000000000e+00  4.0826533005540835e-11 1.2863856695490386e-10 0.0000000000000000e+00  1.5923787028509536e-11 1.3393269586165296e-10 0.0000000000000000e+00  -1.5903389022355913e-11 1.3653002586408424e-10 0.0000000000000000e+00  6.7780756477687854e-11 1.0502537563991607e-10 0.0000000000000000e+00  -6.9764600194977604e-11 2.9019822953568418e-11 0.0000000000000000e+00  -8.0996790932620071e-11 9.3839466098361919e-11 0.0000000000000000e+00  -2.4730892101189162e-11 1.2701026309577029e-10 0.0000000000000000e+00  -5.1341577017987960e-11 1.2189652221988449e-10 0.0000000000000000e+00  1.3529648613436140e-11 1.3756958825858885e-10 0.0000000000000000e+00  9.3094344367489009e-11 5.9130564094239003e-11 0.0000000000000000e+00  3.1211058310422432e-11 1.2315809413495445e-10 0.0000000000000000e+00  9.6874333424405393e-11 -3.9165687603653441e-11 0.0000000000000000e+00  -3.7156734102898566e-11 1.2935017736796397e-10 0.0000000000000000e+00  1.1090784280517527e-11 1.1331323398982726e-10 0.0000000000000000e+00  6.0514088780086546e-11 8.7997560756996684e-11 0.0000000000000000e+00  -6.3981067145004629e-11 1.0061211005328250e-10 0.0000000000000000e+00  -8.1513143370555611e-11 9.2165115026269635e-11 0.0000000000000000e+00  9.1223103280212173e-11 7.6890718892882877e-11 0.0000000000000000e+00  -1.0337116040668048e-10 3.5092694623601262e-11 0.0000000000000000e+00  1.0649305178154778e-11 9.8033969149790408e-11 0.0000000000000000e+00  -1.3255331778165907e-11 1.2741697708270536e-10 0.0000000000000000e+00  -9.2916220024811802e-11 5.9731348976837011e-11 0.0000000000000000e+00  -1.0100174518128068e-10 5.1893195390523862e-11 0.0000000000000000e+00  -6.8633681297432356e-11 5.9266937235046462e-11 0.0000000000000000e+00  9.1053342715082002e-11 -7.0646421201108627e-11 0.0000000000000000e+00  -7.8106692709764243e-11 9.6661233486120992e-11 0.0000000000000000e+00  -5.4981040644086568e-11 1.2004129127878622e-10 0.0000000000000000e+00  1.0612225816077061e-10 -2.7836297852079637e-11 0.0000000000000000e+00  1.0567205188817086e-10 1.1686091049157779e-11 0.0000000000000000e+00  9.1567234988885123e-11 4.5470532893411356e-12 0.0000000000000000e+00  4.3297978721688425e-11 5.8002742792545946e-11 0.0000000000000000e+00  -7.8713522472057238e-11 8.1875687238136733e-11 0.0000000000000000e+00  9.5683857914373937e-11 -4.2952414250936000e-11 0.0000000000000000e+00  -8.8978848183811300e-11 7.9915642292733285e-11 0.0000000000000000e+00  8.2169182978935884e-11 1.4861497176221329e-11 0.0000000000000000e+00  3.8319948653558115e-11 3.6085894083480628e-11 0.0000000000000000e+00  1.0741479802953153e-10 1.6887449842932513e-11 0.0000000000000000e+00  -2.8042200853845689e-11 4.6347338438786152e-11 0.0000000000000000e+00  -1.0753241800672530e-10 1.2031479836881590e-11 0.0000000000000000e+00  -3.9901975324088494e-11 9.1649491718437987e-11 0.0000000000000000e+00  -5.3289520689291257e-11 1.1828436199535329e-10 0.0000000000000000e+00  -2.3240406046519187e-11 1.3471345670243870e-10 0.0000000000000000e+00  -2.7112943182748395e-11 1.3296542202405636e-10 0.0000000000000000e+00  -3.2588764948703593e-12 1.3762778293569502e-10 0.0000000000000000e+00  6.7587809959488802e-11 7.5767371956173356e-11 0.0000000000000000e+00  6.6166454483605327e-11 1.0267959023370203e-10 0.0000000000000000e+00  -1.0816386893985030e-10 1.3217869331774352e-11 0.0000000000000000e+00  1.0335933590069985e-10 6.1910756761305934e-12 0.0000000000000000e+00  9.7306495470349835e-11 -5.7321499237139493e-11 0.0000000000000000e+00  -3.1235328558047071e-11 -1.3362776199225381e-10 0.0000000000000000e+00  -4.9860946584417630e-11 -1.0319819576361760e-11 0.0000000000000000e+00  -1.0563854639991519e-10 -2.2052835134883925e-11 0.0000000000000000e+00  9.2471605095766700e-11 5.5181044063670003e-11 0.0000000000000000e+00  2.7403162255881075e-11 -1.3441410283084203e-10 0.0000000000000000e+00  8.0139281064630761e-11 -9.1827668980619119e-11 0.0000000000000000e+00  6.9547788393207966e-11 -1.0442753068933627e-10 0.0000000000000000e+00  -6.6718649250460033e-11 1.0976379452147415e-10 0.0000000000000000e+00  1.0075517201295715e-10 4.6297988759673724e-11 0.0000000000000000e+00  8.8522070325988365e-11 7.8558323167051379e-11 0.0000000000000000e+00  -9.4453998801573545e-11 1.0412797237424782e-11 0.0000000000000000e+00  -1.9618437279094356e-11 5.1186872312534365e-11 0.0000000000000000e+00  -2.8569871972439391e-11 9.8928090917486334e-11 0.0000000000000000e+00  1.0370098429020931e-10 -3.1619301270051975e-11 0.0000000000000000e+00  -1.0679862864459862e-10 -3.1613714279826068e-12 0.0000000000000000e+00  -8.1201728115607089e-11 -8.9998662980874650e-11 0.0000000000000000e+00  2.7818315731872223e-11 -1.3421938685937143e-10 0.0000000000000000e+00  -4.3341302203300520e-11 -8.8103555623845454e-11 0.0000000000000000e+00  -5.7402689581698259e-11 1.1749274600632508e-10 0.0000000000000000e+00  -9.7059886962296337e-11 3.3176178167402983e-11 0.0000000000000000e+00  7.0703035073498603e-11 -8.9494812879819910e-11 0.0000000000000000e+00  1.0491669698920838e-11 1.3669371340422635e-10 0.0000000000000000e+00  -1.0160181691961384e-10 -3.8407094656563653e-11 0.0000000000000000e+00  7.7224671470732028e-11 -4.9004322426812982e-11 0.0000000000000000e+00  1.0574723336458214e-10 -1.9719348038328353e-11 0.0000000000000000e+00  7.7482328563866005e-11 9.8195100049207174e-11 0.0000000000000000e+00  -5.3709376235827063e-11 -1.2130879084481916e-10 0.0000000000000000e+00  4.5976632629985530e-11 3.5544115419787372e-12 0.0000000000000000e+00  -5.7690351971487413e-11 -1.1839547804016144e-10 0.0000000000000000e+00  2.6229555667006287e-11 1.3424699538014443e-10 0.0000000000000000e+00  -9.2250694213445108e-11 7.1480258187047730e-11 0.0000000000000000e+00  -1.0158687901422266e-10 4.4423988162764441e-11 0.0000000000000000e+00  4.7123412629973581e-11 -1.2496045426026733e-10 0.0000000000000000e+00  7.8940547994758952e-11 4.4719940791837420e-11 0.0000000000000000e+00  7.1737150619562711e-11 -5.6103828920500330e-11 0.0000000000000000e+00  1.3096716687303946e-11 7.2465274507326305e-11 0.0000000000000000e+00  9.9901240204742612e-11 5.4157284063133894e-11 0.0000000000000000e+00  -5.0448708774419422e-11 -1.2369783426354610e-10 0.0000000000000000e+00  -1.0696514845338957e-10 1.0334887121018663e-11 0.0000000000000000e+00  3.8293915393873735e-11 1.1773916118047220e-10 0.0000000000000000e+00  3.6241996487873385e-11 8.9194155329363292e-11 0.0000000000000000e+00  1.0191999662743867e-10 4.5550181019008276e-11 0.0000000000000000e+00  -7.6401982108976906e-11 9.7807349901180472e-11 0.0000000000000000e+00  8.1286205213460531e-14 -1.9218922689275474e-14 0.0000000000000000e+00  -6.6496528530292839e-11 6.6695044395784773e-11 0.0000000000000000e+00  2.5987679614580755e-11 -1.0078528468529916e-10 0.0000000000000000e+00  7.0991467254024367e-11 4.1208415788563093e-11 0.0000000000000000e+00  -5.0332071204411182e-11 -7.6463285005769769e-11 0.0000000000000000e+00  7.8816274589658627e-12 5.3560621146329152e-11 0.0000000000000000e+00  1.3031060560358730e-11 1.0386090524189366e-10 0.0000000000000000e+00  7.9773471735296350e-11 -2.0284120449224317e-11 0.0000000000000000e+00  -4.0230342217517466e-11 -7.2916001790608971e-11 0.0000000000000000e+00  -7.9297455492592425e-12 5.8707991960118418e-11 0.0000000000000000e+00  6.0050996114888597e-11 -5.3943816081060659e-11 0.0000000000000000e+00  -6.9288498832256683e-11 1.9829824367187729e-11 0.0000000000000000e+00  -9.3137581679128977e-11 -1.6551484702499764e-11 0.0000000000000000e+00  2.7671393989641253e-11 -4.4748418318444488e-11 0.0000000000000000e+00  -7.6693311585863995e-11 1.6534677389007328e-11 0.0000000000000000e+00  -9.7554412801753829e-12 -3.9844131321540053e-11 0.0000000000000000e+00  7.1804799867697714e-11 6.9371437758240819e-11 0.0000000000000000e+00  -3.4037830493974749e-11 1.0197042233024382e-10 0.0000000000000000e+00  4.4196196456090340e-12 -1.0521259830233502e-10 0.0000000000000000e+00  4.8734529759929135e-11 1.5407542521563414e-11 0.0000000000000000e+00  9.6309968553560700e-11 -2.0258383032510683e-11 0.0000000000000000e+00  5.8611320354921479e-11 -8.6821090292867160e-11 0.0000000000000000e+00  7.7690837011912490e-11 -8.1942859778158238e-11 0.0000000000000000e+00  3.8089809174025360e-11 1.0042459156103787e-10 0.0000000000000000e+00  -2.9813169641886067e-11 -1.1793026475236517e-10 0.0000000000000000e+00  6.9401332738891419e-11 2.5898717415679049e-11 0.0000000000000000e+00  -3.3136855731866505e-11 1.1422915679543982e-10 0.0000000000000000e+00  5.6802509047559140e-12 -1.1491837728261431e-10 0.0000000000000000e+00  -7.6921928223961069e-11 -8.1122313928841909e-11 0.0000000000000000e+00  3.0188280693197002e-11 1.0894577201470523e-10 0.0000000000000000e+00  -3.5776354204037721e-11 -2.7832065595628250e-11 0.0000000000000000e+00  -9.6806034422239705e-11 3.7716373446747014e-11 0.0000000000000000e+00  -9.9599100003239182e-11 3.5762764663973309e-11 0.0000000000000000e+00  -9.1456328546475708e-11 -4.3911846874563043e-11 0.0000000000000000e+00  7.4191911124323530e-11 9.2024578593822779e-11 0.0000000000000000e+00  -9.0529655707094484e-11 -3.7608114812126659e-11 0.0000000000000000e+00  1.0098100223037075e-10 2.5926626880209160e-11 0.0000000000000000e+00  -4.3761638154232938e-11 7.0201969572323429e-11 0.0000000000000000e+00  4.9902181435099111e-11 -1.0893658291535042e-10 0.0000000000000000e+00  5.4787918563639757e-11 -1.5832477938047740e-11 0.0000000000000000e+00  2.9853012212971646e-11 -4.8289021910255595e-11 0.0000000000000000e+00  </DataArray> 
</PointData> 
</Piece>
</UnstructuredGrid>
</VTKFile>