<?xml version="1.0"?>
<VTKFile type="UnstructuredGrid"  version="0.1"  >
<UnstructuredGrid>
<Piece  NumberOfPoints="201" NumberOfCells="657">
<Points>
<DataArray  type="Float64"  NumberOfComponents="3"  format="ascii">-53.61854001156557 124.8849376515337 334.5735631394896  -1.59973870192163 -128.9444119547916 -337.634827462494  4950.803703262368 45.98299684281 -471.9386260203026  8369.987648194692 171.4263873403844 -588.1038138539537  10253.60633828003 240.08707780805 -623.2351595079213  11202.85966616877 265.0351693003709 -466.8329505714916  11497.846415864 268.2635530526705 -194.5498111862279  11205.93663095638 269.9915632713765 73.88682594809387  10255.35911156563 282.7150097600038 237.2273419794911  8372.84980423765 298.1822381179804 251.3520024996665  4923.188785569651 258.6287212541437 268.2114277590676  5726.152822556513 -1622.837413853503 -1071.69179664072  6015.20930522981 1612.970093289714 716.8381346734626  11016.42710960324 -1258.928949308344 -669.2437756082977  8998.657512382006 -1384.568527196764 -229.7028373547861  10533.58788575593 1826.425830053239 542.3642758526914  10549.23022238088 1813.542751940145 -151.3298979730894  6651.948336197986 1678.243230467288 -19.93868898538672  2312.038151998469 -1385.501631719137 -253.1817511892958  8936.431993129785 -1327.163195100786 -1033.147473221375  6280.29422607677 -2764.081880404836 -1387.20741743794  8662.773149857987 -2633.237136010253 -1252.118485595622  5911.297041305845 -3759.692563372413 -1482.776365442538  8008.225615192944 -3500.898301537092 -1237.401459797073  4992.534470158384 -4383.900846732807 -1396.560399004356  7098.451601066367 -3954.755878528485 -1119.70200306325  3633.043660508894 -4658.676538303789 -1253.822165524261  5558.821573344716 -4098.993059370385 -1017.067509139231  1795.975254050603 -4603.360655121098 -1115.833763977053  3737.176997224859 -3825.001098000355 -928.2995973947765  -498.390681335921 -4202.676760003366 -950.372331027912  8452.611980209032 -3243.429660189556 -813.7817177511913  9113.714742893981 1825.857428366968 701.377926109354  8823.069023683975 3152.650872330044 968.1868240366565  10006.94734427624 3054.922295845633 674.6566338849682  1377.325248741097 -3182.959263847698 -764.3135738754298  5601.695660804267 -2688.971111226379 -652.2894126198548  6712.68518185774 3010.920839003176 1113.710118429422  6135.350939205904 4081.008770529026 1287.653530356125  11048.89318991948 -1221.487455020723 -398.609486940452  9755.766317471844 -2719.126619914245 -851.5121249942551  10449.09639493561 -1289.352322801829 -900.6919816229828  2570.600431906939 1542.026202283467 160.0476860937505  9129.197545698657 1721.819797326769 -165.3385825296312  8843.201906184106 3120.892624397732 252.0171084919228  2332.528153264545 -4484.859666600866 -1555.070619219901  -2250.261580832338 -4791.603914280866 -1062.266191187134  2773.474583858288 -2957.425941724602 -1390.660101031642  9979.74764837003 3087.310185777473 301.3049700227206  7833.057947744489 4136.030860449538 639.5727454833615  6096.568509241134 3973.249056708494 642.6608341292164  4714.373212927836 4698.381515641127 937.426014889522  2390.709914669749 4378.657932152671 925.514900258676  893.3448174535728 4857.581177217179 1130.133020286939  -1807.042638451203 4354.076287011279 1039.776517602737  -2990.292822610897 4682.382281539326 1194.959081583025  -5566.38238055418 4055.560334420481 1000.937297933601  -318.7842510964584 4970.08709985705 1334.194533644011  -4603.020919351196 -4226.49888986414 -790.7252017825361  -5800.349386056741 -4643.3329358316 -882.6446939765599  -6319.485421929071 4183.819151648549 1146.434722773923  -8414.522152657495 3319.657842231368 846.3419037617689  -8782.063061718063 3308.785161252908 1024.024098731461  -10315.22619040574 2155.650183178099 607.4391378588988  -10413.24963781138 2040.709919647943 841.0255194389149  -9629.841841160227 2035.822593911 432.4497049864917  -8643.728128809658 3073.637970981818 1233.33911095634  -10996.79659212776 760.686809119821 180.1180070611246  -10033.7996795669 1659.290153548788 1006.766493250664  -10105.86165270587 380.0979617701141 -56.23677869485424  -10810.57036432845 -1029.785157669601 -345.4474253768963  -7888.885637437082 2610.938519200479 1324.270683935558  -2442.896697249573 -2345.971871639238 -419.1112483639423  -7814.734626193061 -3818.361188170046 -516.7625357445677  -9485.25851956228 -1307.624733066978 -550.1297646672341  -9689.195856203269 -2605.511520856408 -795.743566744703  -11165.35979683377 391.1961052163136 575.9726625262999  -4402.672896185203 3441.21892431055 836.7912945196105  -9026.18288496614 1038.177833020207 969.7357101865715  3272.624761999587 3743.624811721334 1415.384780073525  -10839.69263768339 -2200.29450683767 -416.601767581294  -8241.531768092864 109.1760780962162 -137.9421060515943  -6338.647754348288 2057.308064764353 1220.116330684139  -7691.799538610312 -2756.64350768843 -1010.094162681105  -7585.703200262229 -3817.311648072616 -1145.569898640581  -6029.924564008687 3790.395647060651 1485.823668341821  -3499.193939352968 -4993.858829244801 -1173.946616896422  -7098.759206669462 257.4902742842312 662.2490348735832  -9446.340308219655 -762.7060437155346 462.9689006680641  -4879.213978133424 -3762.136900363316 -1353.652423837178  -4647.381840970077 -4553.882272330509 -1391.155665734203  -4561.077647281941 -2581.101360077372 -1078.849425998426  6477.436507175426 4658.148783965883 986.3561465257668  -8407.233939260066 -4068.340180869566 -659.4095124676912  -9974.559147631708 -2950.763496387476 -233.2852715597548  2644.044216240333 4553.065579378334 1485.151671832096  -626.0484392645315 4097.158011127665 1567.462768362812  -99.30972199014276 3267.719415332004 1410.621159967323  -4150.599512002394 1410.270883194894 952.6472241754346  -6489.721426128343 -3168.709933819101 -409.5873574864402  3646.942868406524 3640.929216901591 699.4735331317306  -7075.21085488612 -4443.823092591868 -1107.168229750552  -889.5806519946519 2727.813205906779 630.506953454696  -2556.411967026776 1080.041160398524 153.4886141997989  -1134.35833674389 4695.790912263672 1526.406152953221  -3550.559112323278 -908.1313993729768 93.11059098263235  -1290.434425648158 -4319.264815722187 -1549.886128219395  -6868.364371403434 -1558.051082684409 65.89606834545323  -9211.172782046968 -2485.843874425811 -65.73176900319999  -10655.79096089073 -1362.894969983819 278.245973090315  -11132.14218883687 -1696.385493535934 -7.4712867869281  -11429.47865845154 -456.1722133788013 69.61033515678045  -5486.584313020374 2203.54907214325 518.4698397313915  -7669.127320198133 2405.736320619282 541.8306543348754  -1454.131657480088 -4814.964098441184 -1484.979524267643  -188.2824538096416 3881.517551362053 890.9207504051747  5257.615853260249 4689.165481960743 1265.232167371953  10454.63227563119 -1203.889801344638 -219.5860429979298  649.9272533440135 -1712.085486843266 -931.9035771654536  1620.874079110363 -4839.893038843808 -1429.067970171727  -4017.444075375648 3374.353876494 1509.477259111563  11154.87439804481 1713.293375982322 -2.910482445844766  7973.996174467654 4112.57827438441 1023.185250283574  9100.232324475266 3824.449997864293 675.6174586566257  -9287.957638122361 -3527.24780376044 -838.3061853664094  -3828.466148174127 4663.567818169576 1362.623103404681  -6536.321317633762 4069.402985365197 1328.790556925554  -1055.371504627439 -3410.427787227674 -1416.873365265036  -3792.183379265176 -882.0705309757936 -516.5437898307812  -7266.446632467676 -1321.167877071745 -603.6292663682731  3207.210118980998 4986.633651734347 1189.644841105949  -46.24336012535979 -4965.439793663036 -1249.912324494828  6975.32198759415 -3205.761513074485 -756.8482017120862  11153.21886735154 1731.442976442656 263.591469944395  6396.21692098322 -1277.246026256031 -234.6441320626161  -10054.58571147081 -3230.24491835541 -500.9290194683726  -2909.732547024844 -3626.858600925888 -737.807266270987  7002.038104977299 2871.084821720841 301.4657720165337  -10510.58960512288 210.0067840476863 707.6286027933318  2764.025332357764 -3865.440032696376 -1568.894566417919  3839.544812103204 2861.003797989091 1179.659823777943  2104.201162930011 4930.114662412595 1392.667835921324  -7705.778408329751 3187.598746706761 757.1119735745632  9839.21657922032 -2416.196394209088 -1021.864687468493  -142.435790623264 1606.17559747885 872.753372639613  9277.570461719695 -2352.584391406043 -524.0612521345989  -11123.53737735744 1102.299764363036 478.2911869073498  -6547.11937641711 -4677.889131543728 -1004.538574765034  -4260.353323977194 -4905.291963606122 -1285.044272968381  10547.99491516348 2753.359744824492 375.1784702091477  -3151.006397104622 2712.200827185572 1335.822279639026  4441.048171922155 2586.340078773423 384.3144180616072  -5281.225711621221 169.6147782613666 -113.9972194246426  -4341.637175886149 4387.957361881093 1492.851283786248  10038.23110670119 -2235.060949526244 -557.9754288977521  -1236.941571670545 -5008.192123806577 -1361.757251494985  -8660.390926873011 1212.150189064144 201.7572483255666  -6453.15482368737 1013.900855337626 163.1696385886857  -3428.007271096195 4111.77446220454 1574.451193752421  -8568.828475662585 -4066.627838052588 -818.261817736274  -18.78408128051721 -2.205355490877433 -0.6149338874531285  -5016.713438398931 -2388.024375546444 -634.3375217309132  7250.873506675824 1101.26897798489 145.072003792484  -2828.745306224482 2272.564429071155 937.3858884761601  5389.273527861554 -1498.775413047115 -581.4467957727437  -3826.107391805733 82.01297431693463 4.491983029165004  -7341.089072797615 242.2832892787692 292.0378971834326  1704.381408977385 2660.738602156483 782.1800381089412  5138.740358978675 -1201.242014370306 -672.4285773575872  -4260.365456976097 -338.2930138009762 155.5735460004311  4058.974742931625 2141.810694176366 733.3073045147829  -1656.620888976187 -2338.869484692725 -886.8275833001973  990.4379173524028 -3117.048937898949 -1059.763582312222  3339.720313406143 933.2785103867151 66.73009875908791  -1468.642199366925 -
[...]
<PointData  Vectors="Coriolis"> 
<DataArray  type="Float64"  Name="Coriolis"  NumberOfComponents="3" format="ascii">-1.2069995913068976e-08 1.2007601394365870e-08 7.1893689793084774e-09  1.2170736216174331e-08 6.3302013730637426e-09 2.9944408909458987e-09  3.5468675120828996e-08 -6.3746001746641133e-07 -3.5568336782310295e-07  4.1266621309719811e-08 -9.6816615095472803e-07 -5.3966632095872208e-07  3.6736522088748241e-08 -1.0567688629014846e-06 -5.8869782340517230e-07  3.4638273054265867e-08 -1.0735497898050858e-06 -5.9793090810754716e-07  3.4701775289049788e-08 -1.0752937828931837e-06 -5.9890256372226857e-07  3.4116511751295712e-08 -1.0733882426247076e-06 -5.9781875596616207e-07  3.0812224809256843e-08 -1.0571761291955320e-06 -5.8866975836169277e-07  2.4068799259997416e-08 -9.7322600734745933e-07 -5.4173916581336256e-07  1.1907132370531579e-08 -6.3533332181969204e-07 -3.5349030170920624e-07  9.0115297266897384e-08 -6.9555126229864876e-07 -3.9030377932575044e-07  -2.4034390102624957e-08 -7.6274601448958564e-07 -4.2273537630560726e-07  5.3482282571798742e-08 -1.0597370886059278e-06 -5.9106582106113084e-07  6.2276096344102448e-08 -9.7977748992101418e-07 -5.4701931250323030e-07  1.4988205136389951e-08 -1.0492070617864025e-06 -5.8356295910424234e-07  1.9541920108086693e-08 -1.0573793194507961e-06 -5.8829880450317711e-07  -2.0326231628119868e-09 -8.2187479067752466e-07 -4.5653075277297956e-07  5.3514031253469711e-08 -2.9945812859093412e-07 -1.6867064221772809e-07  7.3508383631925091e-08 -9.7175283350074625e-07 -5.4304317628403996e-07  1.3174399487834071e-07 -7.1940957743895795e-07 -4.0534615654157295e-07  1.0996237894978764e-07 -9.1449228223086989e-07 -5.1279529911534956e-07  1.7281230596038596e-07 -6.5698187751076132e-07 -3.7242560575785594e-07  1.4161809172730048e-07 -8.3887745214341165e-07 -4.7214413962790174e-07  2.0471943441736056e-07 -5.5168954172664565e-07 -3.1529698155763268e-07  1.6410592010577867e-07 -7.5689640979655466e-07 -4.2756244954577609e-07  2.1935876137013284e-07 -3.9929189706940934e-07 -2.3125622346784695e-07  1.7733750276550864e-07 -6.1801602312648007e-07 -3.5097118760960214e-07  2.0969448116749406e-07 -1.8465556010191688e-07 -1.1159345891384219e-07  1.6561906419988439e-07 -4.3335140965469445e-07 -2.4787195651164190e-07  1.6822251556625097e-07 9.4006646376987924e-08 4.5006389413872866e-08  1.2127981747166123e-07 -8.8333352431529153e-07 -4.9596995135134296e-07  -1.0210552822237037e-09 -1.0021827979667819e-06 -5.5674988240434515e-07  -3.4625020534385854e-08 -9.5771030490466280e-07 -5.3059916737286072e-07  -1.0150531741650346e-08 -1.0069366707269507e-06 -5.5899910860157678e-07  1.2387498048011770e-07 -1.5743083608268973e-07 -9.2783625093226850e-08  1.1176237990168489e-07 -6.6750696940199860e-07 -3.7565222838821218e-07  -6.3308309801583485e-08 -8.0733554000508055e-07 -4.4582241092948600e-07  -1.1494456846273122e-07 -7.3510066702235484e-07 -4.0347330553931977e-07  5.1555469979715406e-08 -1.0629842091842587e-06 -5.9278714005879966e-07  9.6328483094200591e-08 -9.7402329364233305e-07 -5.4528428451134336e-07  6.0317909069523153e-08 -1.0455619289629754e-06 -5.8348383024137178e-07  -2.6981569401921995e-08 -3.4578699740328624e-07 -1.9095434572094207e-07  1.1750007762343710e-08 -1.0131392317710977e-06 -5.6338533997664789e-07  -2.2276557127431911e-08 -9.6345400049587571e-07 -5.3432038414238206e-07  2.1984104554375105e-07 -2.5027534700710210e-07 -1.4848616498046659e-07  1.8916689602836140e-07 3.1270057230144208e-07 1.6560942087787805e-07  1.4258683809924868e-07 -3.3618352552973098e-07 -1.9289853619725219e-07  -8.1167191161181310e-09 -1.0077877025571465e-06 -5.5955923879121914e-07  -7.2829255848956978e-08 -8.7429675578815910e-07 -4.8261604864299597e-07  -9.4268808564291417e-08 -7.4242198036063527e-07 -4.0842851373538201e-07  -1.5404154473568632e-07 -5.8678035357626672e-07 -3.1939089600798447e-07  -1.6310726636241889e-07 -3.2425027229645189e-07 -1.7314497384874376e-07  -2.0862148220220659e-07 -1.3870048951590076e-07 -6.8103081831120719e-08  -1.9071333473186576e-07 1.9995380989416635e-07 1.1927800113804670e-07  -2.1486037043887143e-07 3.3435748645927701e-07 1.9498677970251257e-07  -1.7074013952864926e-07 6.2284173797482575e-07 3.5336903339611504e-07  -2.3047943799601038e-07 9.7940986794985600e-09 1.5336067560401819e-08  1.2121059040759936e-07 5.8666479463444283e-07 3.2073615076795745e-07  1.2546730591004200e-07 6.9237928096860276e-07 3.7928636643667598e-07  -1.7627333346659802e-07 6.8632498473458964e-07 3.8887666296129752e-07  -1.2096909846733631e-07 8.7759827433576128e-07 4.9277021605915321e-07  -1.1961849346942158e-07 8.9578294927163144e-07 5.0281529340197576e-07  -7.1407874269215730e-08 1.0117680897752911e-06 5.6518471580199709e-07  -6.9723308552585819e-08 1.0126089934447103e-06 5.6557958625007451e-07  -7.2492373048525156e-08 9.9008762128152447e-07 5.5318601785603082e-07  -1.1751923199552476e-07 8.9421493024934660e-07 5.0185400898665166e-07  -4.5296157856303178e-08 1.0538053290647374e-06 5.8741881180850367e-07  -6.7904596854109234e-08 1.0083188062050643e-06 5.6311796111430688e-07  -4.2129919179865155e-08 1.0422590750243624e-06 5.8086800352440561e-07  -2.7873951954854074e-08 1.0598910267035399e-06 5.9005196159992611e-07  -1.1421416997035199e-07 8.6507598974018633e-07 4.8552307864316082e-07  5.8895498778659097e-08 3.4287141099021262e-07 1.8796441276399615e-07  5.8482294290992658e-08 8.7459463754747285e-07 4.8339747174112846e-07  -1.4460626995268350e-08 1.0222326491118607e-06 5.6855383872502430e-07  7.0004182673185589e-09 1.0105630999634875e-06 5.6114912046623531e-07  -4.1646741808253009e-08 1.0576683136488173e-06 5.8940834050553043e-07  -1.4112019380800113e-07 5.2034155013059043e-07 2.9515027080271964e-07  -6.4395659669185142e-08 9.7906766219588111e-07 5.4671594012736708e-07  -1.4196066918614211e-07 -4.3092822075756330e-07 -2.3332105373688117e-07  -1.6408611868605315e-08 1.0497534649365496e-06 5.8392750942047063e-07  -3.4292840179755072e-08 9.5136193350184668e-07 5.3003082751595606e-07  -1.0325866726252937e-07 7.4649060203084563e-07 4.1916896300848850e-07  3.9742281205220876e-08 8.8565977593808701e-07 4.9034957494854946e-07  7.5163616599089113e-08 8.5232664750458173e-07 4.7030965817001514e-07  -1.6926902119576607e-07 6.6805727715905959e-07 3.7842677149414168e-07  1.8727048698647363e-07 4.5525220147983336e-07 2.4488981123774533e-07  -4.9198687401478780e-08 8.5600141240765343e-07 4.7769025325585636e-07  -3.4113725874603273e-08 1.0284880019799851e-06 5.7287291594869517e-07  1.1502274793777359e-07 6.1202646012153692e-07 3.3509225878570872e-07  1.5299678409978955e-07 5.8015377571297347e-07 3.1575414762422968e-07  7.0358952247128360e-08 5.9380280637202582e-07 3.2688499281405460e-07  -1.2718477451233546e-07 -7.6029448111174624e-07 -4.1694502877998637e-07  6.1321726943983515e-08 9.0524766481341265e-07 5.0030581221929060e-07  4.4921213204361790e-09 1.0209071862115832e-06 5.6700378124666826e-07  -1.8877915439799492e-07 -3.5266992637854288e-07 -1.8783228045973888e-07  -1.9166304375811070e-07 5.5238862247844532e-08 3.8917898099379588e-08  -1.4345707073879217e-07 -6.8164097536931509e-09 2.3716502567111387e-09  -7.7648114299613683e-08 5.2474706639230202e-07 2.9487298867363422e-07  5.0162835388317570e-08 7.8142465724000406e-07 4.3199116179909810e-07  -1.0740186199013522e-07 -4.7918398665071733e-07 -2.6161467532565896e-07  1.0347439904660908e-07 7.9840832524704253e-07 4.3913826019249304e-07  -9.8375018595285999e-08 9.7889451757889472e-08 5.8608831294135124e-08  -4.0560217392241344e-08 3.3159093838957404e-07 1.8596690389544261e-07  -2.2532197341949568e-07 1.1173209211974920e-07 7.1749465722891198e-08  -2.2785148492668509e-09 4.7590463486178169e-07 2.6450138935920981e-07  1.8965580603913144e-07 1.9218752947939104e-07 9.8633675248862324e-08  -4.3512810177664439e-09 8.3774258805187119e-07 4.6562066516283842e-07  4.3963470521136272e-10 1.0015685944136611e-06 5.5643360339725793e-07  -2.6523199109854799e-08 1.0569512738782338e-06 5.8836070198022582e-07  -2.4858103834305748e-08 1.0592865621605050e-06 5.8958666000032117e-07  -3.4723671482447227e-08 1.0665537527025995e-06 5.9404770906372452e-07  -8.9305559957112615e-08 6.6341576548293635e-07 3.7241514537751619e-07  -9.3189521913007628e-08 8.5981326476814364e-07 4.8169660499566970e-07  2.1315110029172822e-07 2.1414379508144125e-07 1.0982348882894537e-07  -1.5392960067057418e-07 1.1338478936799314e-09 7.2382557618193353e-09  -1.5525067444029474e-07 -6.3949398507676106e-07 -3.4862567906839279e-07  5.2575303374297513e-08 -1.0524794219691722e-06 -5.8699466211582791e-07  7.5460233056959022e-08 -7.1814300250867455e-08 -4.3138223985554459e-08  2.3356069400938659e-07 -1.5938667493987817e-07 -9.8579140668202657e-08  -1.5999649026528395e-07 4.7647235108180309e-07 2.7158775084710542e-07  2.3615024593514832e-08 -1.0647363840987401e-06 -5.9256111119104226e-07  -7.6252027714029550e-08 -8.8031962745505469e-07 -4.8581529955885718e-07  -4.1706112062532074e-08 -9.5107175485280962e-07 -5.2660691863505932e-07  3.5524384335664967e-08 9.6965669002462073e-07 5.3719774156423711e-07  -2.1700591205475219e-07 4.2651413935590075e-07 2.4627937439206843e-07  -1.7378921567696457e-07 7.0625143271112410e-07 3.9984077376370376e-07  1.4316285174089618e-07 1.6075020097288769e-07 8.3163669824680747e-08  1.3962380926541703e-08 4.9998655245708238e-07 2.7718361147415858e-07  4.2502458041682233e-09 8.7771429975488875e-07 4.8745891866444392e-07  -1.9708146587847074e-07 -4.1706262473491077e-07 -2.2325121558490005e-07  2.2530603422748206e-07 4.4283569525449298e-08 1.4930555245758394e-08  1.2771518836294001e-07 -7.7492105624220634e-07 -4.3601431958552147e-07  2.2815399074328965e-08 -1.0625131795954532e-06 -5.9129161250482043e-07  6.0352866694899333e-08 -7.7231300406841057e-07 -4.3167342115106893e-07  1.2653915833086166e-08 1.0163679477437089e-06 5.6413147475246686e-07  1.1208718470707993e-07 3.9784652920491595e-07 2.1622398534245020e-07  -3.7113920355919616e-08 -8.4412954800839550e-07 -4.6738900702361443e-07  -4.3894109321413389e-08 1.0498475359387487e-06 5.8515974618274642e-07  1.8892350760907759e-07 -3.1453011749718685e-07 -1.8285758163334337e-07  -9.1897972944698001e-08 -5.0488827728852448e-07 -2.7656108412443666e-07  -2.1193976128035299e-07 -2.8503053363905108e-07 -1.4925881731770803e-07  -1.2061304973268701e-07 8.3826829681729792e-07 4.7090394254196955e-07  9.0329257241181693e-08 -9.8710748462733683e-07 -5.5229606117480430e-07  -6.6060093795715050e-08 8.4117136860819244e-09 7.5093968737204806e-09  8.5865045583802410e-08 -9.6565955151209478e-07 -5.4018834522978003e-07  -4.8384763503798779e-08 1.0479813484532709e-06 5.8431571498084149e-07  1.1862759557402759e-07 7.5287897739822873e-07 4.1319248185155654e-07  1.7364548375742856e-07 5.3681953816606730e-07 2.9079200484383480e-07  4.5088949716462815e-09 -1.0315162657420053e-06 -5.7328440449460006e-07  -1.2796765600808434e-07 3.8785221306439918e-07 2.2097706479731659e-07  -5.2298990762715060e-08 -5.8250671505850916e-07 -3.2138442663342061e-07  -2.5334902716866542e-08 6.7314850698599405e-07 3.7507616404371558e-07  -2.0482178777469393e-07 4.8687721676590359e-07 2.7929287960852241e-07  7.8894845278403834e-08 -1.0048180728474374e-06 -5.6164483966891978e-07  2.2196497817096237e-07 1.8823858594212507e-07 9.5052660648314341e-08  -5.7256070670140985e-08 9.6713311539610202e-07 5.3977882490195610e-07  -5.1357786275888921e-08 7.8158167172900776e-07 4.3643675131703848e-07  -1.9651354574446729e-07 3.9309675180490879e-07 2.2683355651555786e-07  6.1946278828897688e-08 9.1289983257811820e-07 5.0453039873391852e-07  -2.6092582219735943e-10 8.2582951664816589e-09 4.5993535920161095e-09  4.7067581251960059e-08 6.4626581353124576e-07 3.5703235833974274e-07  7.9728129603802138e-09 -8.8569041783468428e-07 -4.9241504322974951e-07  -9.9018135092031990e-08 3.5618498537908158e-07 2.0214053059006266e-07  7.4209718679061004e-08 -6.6997705496008604e-07 -3.7541239750726300e-07  -2.0190807106978706e-08 5.0459983452163141e-07 2.8121288489966730e-07  -4.2180802975865496e-08 8.8123884086947678e-07 4.9141040593652115e-07  -8.7132391142118316e-08 -2.3946664247364839e-07 -1.2930245784159419e-07  6.9043464184498712e-08 -6.4750620670555198e-07 -3.6270623013293995e-07  -1.8237005614873192e-08 5.5859966236623521e-07 3.1113028489627016e-07  -5.1615807106243526e-08 -5.3743080920776467e-07 -2.9637043954441280e-07  7.8869958853368725e-08 2.3628985927393442e-07 1.2789220978665099e-07  1.3047557681501074e-07 -1.0839766374208288e-07 -6.5825094842124265e-08  -5.0178797574846747e-09 -4.4624255777314231e-07 -2.4770846341889000e-07  8.0644691533572307e-08 2.1325256165055551e-07 1.1501693444362438e-07  1.7447314394148139e-08 -3.8122507674962544e-07 -2.1255043392830390e-07  -1.0074865103345647e-07 5.9667290602435126e-07 3.3582534139367232e-07  1.7333370006624617e-09 8.8880564544825281e-07 4.9372911230511003e-07  2.3938195778999084e-08 -9.0469888271374846e-07 -5.0366119075294080e-07  -6.6727174486357009e-08 1.2674539905919403e-07 7.3281981919479137e-08  -1.2727427947476764e-07 -2.4518045255990818e-07 -1.3075362123299304e-07  -2.6533303378201654e-08 -8.0084726317405717e-07 -4.4379642580616826e-07  -6.0794717330556251e-08 -7.6945776995233388e-07 -4.2488615209842259e-07  -6.8971487291849724e-08 8.4007395090890909e-07 4.6969011923244350e-07  5.8225838659989672e-08 -9.4327760329819943e-07 -5.2656678858656680e-07  -8.3154228513323484e-08 2.1452978269650419e-07 1.2275854277259659e-07  -1.1154502199476183e-08 9.5803121583413922e-07 5.3274280810164889e-07  3.0998125595130094e-08 -9.5961651734338459e-07 -5.3447547289818102e-07  1.1848855154448197e-07 -6.7959634298090311e-07 -3.8265761411740262e-07  -5.2896833337591112e-08 9.0551983846609874e-07 5.0536051386119838e-07  5.7702779074192552e-08 -2.5748801342580564e-07 -1.4553266986929176e-07  1.1858188953946694e-07 4.2308251023310982e-07 2.2996579434275763e-07  1.2154387277744298e-07 4.1108078330495577e-07 2.2317070281481582e-07  1.3252077668708587e-07 -3.6748533741143211e-07 -2.0985708456958631e-07  -1.1302047397541605e-07 7.6260246861632793e-07 4.2853949146374631e-07  1.3962173793729617e-07 -3.1055381928180910e-07 -1.7853186453361242e-07  -1.5336709604956326e-07 1.9554931574681244e-07 1.1522764628939528e-07  2.6963205774015849e-08 6.6603304826127809e-07 3.6887775398359881e-07  -1.4627151845586688e-08 -9.3019953651841912e-07 -5.1617323054170501e-07  -5.6026014109848433e-08 -1.7905886019364421e-07 -9.7076461731947328e-08  -9.5260555615238112e-09 -4.7453826336059104e-07 -2.6323548039534896e-07  </DataArray> 
</PointData> 
</Piece>
</UnstructuredGrid>
</VTKFile>