<?xml version="1.0"?>
<VTKFile type="UnstructuredGrid"  version="0.1"  >
<UnstructuredGrid>
<Piece  NumberOfPoints="201" NumberOfCells="657">
<Points>
<DataArray  type="Float64"  NumberOfComponents="3"  format="ascii">-38.6788445928072 253.6594953652342 206.2750553041442  15.11182680308701 -271.1992742085441 -215.4611942788851  5038.669187005176 -190.3264758684889 -398.8557531077113  8562.997772061239 -65.16738939576385 -535.0500086596279  10411.80453085252 45.78495182885501 -626.882252515917  11282.01860375357 109.6160357486154 -525.4916165449954  11545.03534240309 137.3831803509075 -292.8037307584993  11285.75901715432 165.6539708577739 -66.98570893630968  10413.5711965395 213.9052327680003 38.67147691186408  8565.857184337045 255.5103292955502 1.971263143794189  5014.330248259366 288.7728796669167 66.16798854023864  5795.546863021495 -3027.186303336488 -1758.561706852647  6091.757269949759 2604.712382313511 1121.633549954876  11060.07394831813 -1908.302476287635 -1157.577224419787  9108.732564168366 -2287.500951451153 -1011.143960006728  10596.67636381871 2322.70940195608 842.7789847798699  10636.57441760279 2233.610598108501 253.3863728809269  6735.852980722848 2524.282439987392 720.271243543377  2353.503951853455 -2619.780067781571 -1192.141044366886  9049.598184004115 -2314.824144966389 -1553.838495030592  6271.88893590983 -4662.845851974996 -2490.776467528349  8642.433400381755 -4099.124640869823 -2198.032125837129  5798.500179548272 -5920.505890320301 -2862.113194395422  7886.978657165234 -5245.410544008232 -2432.371035594225  4849.021398913223 -6740.761255048008 -2918.277937695632  6945.828425621584 -5929.73604443495 -2460.867979514689  3523.128133039424 -7189.270091789008 -2867.529336194096  5427.938195715317 -6342.176273506435 -2507.640105517197  1781.323480137627 -7245.773518426115 -2801.679852171161  3680.576597872099 -6232.5112656694 -2532.649128041662  -411.4459519882717 -6778.660621523632 -2640.041725149113  8370.549023313621 -4844.960180790803 -1980.965945501489  9237.889756364242 2547.521970645178 1034.198602510352  8782.700999572036 4379.719766435426 1755.52070676166  9952.620109277412 3976.153683240995 1339.114963223159  1403.690823673719 -5472.814200812465 -2330.187091137781  5592.841440830312 -4566.932031572409 -1997.072667940934  6671.854271598319 4618.348798649048 2022.514971953649  5957.661586657953 6064.514251749021 2548.969190561796  11098.72966585638 -1836.27180674075 -909.7362369756271  9708.987501176578 -3959.768465008489 -1778.412254842858  10532.71690710219 -2048.220293167857 -1390.093658377532  2567.47413630656 2686.180562959593 1049.185215802346  9272.422611195952 2300.889529321652 398.1831879663687  8818.136361073974 4277.820929936994 1162.892469234921  2291.140239958267 -7104.432390754372 -3195.908739046376  -2079.545599443969 -7359.882425074414 -2713.998411580309  2796.08194042174 -5203.883310149986 -2634.134347413306  9933.167949152421 4002.411447740349 1024.940960653575  7666.207859986575 5742.154368104696 1797.044683288205  5944.837620994785 5909.152255957206 2004.313546621597  4491.759671790493 6977.083640764489 2451.536140053042  2250.188797231914 6865.640465005435 2560.160335026595  789.615023065677 7481.884491746008 2801.149596369375  -1789.998664841598 6947.909337593522 2717.716237325108  -2907.619625242189 7248.889509249117 2830.494237746991  -5445.902652916233 6302.11328231203 2497.027302886941  -368.3060580225928 7632.020851357776 3012.556415562347  -4429.953758083416 -6434.435670757349 -2299.070909656506  -5575.592789559209 -6721.507001811761 -2297.347621826403  -6167.321164656943 6336.108679614038 2576.0775402279  -8325.077513568382 4976.864608899875 2028.33524579872  -8679.182910722098 4888.394985301291 2140.336881327514  -10318.12029572387 3139.456151776131 1386.137368431201  -10410.51446777163 2991.832238035218 1548.178186865232  -9673.138405868018 3107.142150870201 1300.794141032797  -8569.962810001882 4649.619410584934 2303.106760288346  -11059.45407734359 1222.741053038444 592.8520753624169  -10086.74489405487 2595.179247479751 1614.756716018401  -10261.29215259301 739.9366217689297 349.4199027560764  -10905.81973296474 -1234.422232686241 -408.9666301538488  -7893.790556397021 4239.865979728446 2318.656479920695  -2402.86271339563 -4024.359676020008 -1628.609321707174  -7712.842670786413 -5384.324484435488 -1660.633099205058  -9652.159685238334 -1767.100335774874 -695.7684128057406  -9722.742102479249 -3523.462503918781 -1372.596655995943  -11222.28121586422 760.8743076599269 823.8440181308265  -4348.630773227129 5677.716408514182 2361.276802298162  -9177.140876461352 1893.217776032527 1388.070836393093  3157.917850090128 6066.577433627702 2780.423598706515  -10853.81481571432 -2762.592085578904 -833.6873376468689  -8424.688573397263 354.5839434231086 242.2160337537521  -6393.795707424962 3696.075175842001 2087.737991820851  -7708.694169390332 -4105.614772681157 -1764.234785261252  -7465.930650567995 -5453.952408699659 -2206.889833400213  -5914.820034887189 5957.09762497673 2863.723424828836  -3269.685653023403 -7443.259797838554 -2756.55189755621  -7254.333204862912 734.1228316836811 746.9268496010162  -9648.084734620086 -836.5709943830108 232.1895433515559  -4752.74877243504 -5865.769049287046 -2609.549074905313  -4433.186386012132 -6822.283645225028 -2849.310978160203  -4546.625094429431 -4298.890564171899 -1968.723471534404  6242.642536126312 6631.444509308509 2332.250938996166  -8270.905632961347 -5554.57845622357 -1737.323498916889  -9981.387094714275 -3854.212334362143 -964.3340172563819  2487.237350788274 7058.450832548018 3054.665295206634  -656.8599412854453 6681.965725006702 3121.599665955654  -135.3475683454323 5616.056695912295 2727.684605564356  -4198.674120723388 2732.899797132719 1556.813164613774  -6446.397912776649 -4784.081784151915 -1602.295502561198  3526.229262663293 5833.754969857252 2204.676586075983  -6870.028969711688 -6273.066690144278 -2348.398729696242  -910.6132038590991 4788.172958968663 2054.201270028837  -2578.927121637475 2070.614629689237 951.4014053084778  -1140.408190455064 7351.21130533731 3186.964729848992  -3574.927419808505 -1498.394855569846 -470.3194682025724  -1170.501467176785 -6916.564831936701 -3139.528027960047  -6966.511500963378 -2324.154343183215 -626.5101176685822  -9290.168988377374 -3389.406800515701 -831.6610490389886  -10751.70663565282 -1628.132611325583 -9.143295876404443  -11157.54486524249 -2046.705515255699 -307.2171896273587  -11471.08727011884 -402.5723710928437 127.5035973775504  -5512.527128102149 3863.88582452757 1739.229256336025  -7693.661393966945 3930.510364895808 1691.544794307141  -1313.639129900975 -7441.787420915521 -3141.192997548142  -231.0724612892862 6372.506882986352 2541.833244858564  5022.966480996836 6883.726431551907 2704.523108898417  10551.70420964445 -1862.073133068993 -811.9012377886507  681.3300009841489 -3206.731795341169 -1636.410227023323  1606.285774677833 -7503.969136080043 -3107.442530034977  -3977.655037449952 5692.741919848387 2863.441836866866  11190.34334893661 2046.389860189784 292.1496533761841  7799.882110840212 5700.547590176902 2121.595427174751  8962.950906150319 5094.25089203184 1610.793335022267  -9213.943424195189 -4741.383743098463 -1694.755177275867  -3708.586234215644 7165.327547354313 2957.67907005226  -6383.395224048315 6178.771362867185 2720.920497392993  -982.9348828121337 -5808.146723831552 -2767.999470902022  -3832.280824204192 -1497.218730464127 -676.272784564335  -7405.05255469056 -2012.476792105401 -829.0632660881781  2997.550360418749 7476.572822800219 2791.715703410647  26.81234926558509 -7641.161998879858 -2933.328978755637  6912.338440060144 -5071.010489277983 -2086.677284058571  11179.98133321296 2092.422899104543 537.4214114886873  6474.99038274565 -2333.112881968339 -1103.901777638668  -10021.32865071622 -4195.918650204614 -1242.943231575393  -2799.38342157455 -5882.403405116188 -2282.714127624376  6988.297651172441 4299.291215807864 1392.282210959326  -10637.97093708753 570.9786645983469 866.0046676833662  2733.133358271597 -6385.726644225563 -3089.76819716944  3786.560447750154 4810.199917920047 2225.425878621791  1942.80439140938 7500.115496028837 3025.694184310901  -7649.405886391909 4949.811330213327 2020.0700591858  9820.804694416485 -3583.928267244614 -1847.697584224628  -161.6722206779957 2987.950832705735 1507.562687833269  9290.489635005322 -3584.469010888707 -1490.437905343118  -11148.71078459688 1674.504041985442 937.2792393403786  -6313.138540065442 -6631.837701593871 -2337.785120350622  -4018.483439454867 -7251.286857494616 -2814.219774006641  10521.92796741293 3470.957614071625 937.0304283145772  -3154.722830110572 4819.009683825891 2478.97816178322  4396.584692405222 4231.122555681407 1585.426915564051  -5373.240810666319 471.9150634555451 294.4589152965438  -4221.698313475611 6822.151102177997 3039.936054906362  10046.28715055851 -3294.778780650184 -1397.640288296783  -1100.460828234501 -7652.67598642972 -3032.399598542491  -8808.978113744026 2091.098628076148 981.6640728581405  -6548.141213643998 1919.234139869051 945.0565591175844  -3355.941562457641 6601.932776181976 3109.8761064885  -8425.63385696007 -5520.088380784396 -1857.283991246594  -0.3050809209495962 -9.481369754956518 -4.974886647610548  -5022.925669984363 -3900.486903412637 -1584.464385261022  7396.395427932604 1593.316344001772 452.28434523549  -2847.713890529301 4122.532333739484 2027.597177812101  5452.797324594038 -2795.074690035241 -1433.05893904512  -3879.425777615455 299.8020956360125 235.940492885067  -7509.001885425174 659.2567980189176 561.1106684770102  1665.261025496405 4630.729181759538 2023.923105462243  5215.508568142398 -2330.080887302365 -1302.740701467795  -4319.997443911309 -423.049904878887 7.978425663089173  4063.090244385706 3630.847205173444 1573.74211916621  -1616.992234663849 -4110.972075296993 -1893.261716700067  1033.423013010302 -5423.782573192877 -2484.041205605924  3370.762203578063 1541.862159778563 542.5023253318672  -
[...]
<PointData  Vectors="Coriolis"> 
<DataArray  type="Float64"  Name="Coriolis"  NumberOfComponents="3" format="ascii">1.3378072898965910e-07 -3.8015299862358509e-09 -7.8553632964302490e-09  -1.7047351489675548e-07 -2.7267522333232356e-08 -7.8307633425183240e-09  -1.7701167777031070e-07 -2.3668030786474655e-06 -1.3073515697209260e-06  -1.0896824590372835e-07 -3.6883255436416536e-06 -2.0444854918235897e-06  -6.8883923774086822e-08 -3.9984895103608354e-06 -2.2185275469222514e-06  -3.9157201017494426e-08 -4.0146167182524374e-06 -2.2287637073036633e-06  -2.2758089906227431e-08 -4.0031426490766436e-06 -2.2230929584721375e-06  -4.4403687274198778e-10 -4.0154040807794898e-06 -2.2308631356835212e-06  2.2436447468296300e-08 -4.0068401637129963e-06 -2.2270874621980294e-06  1.7853411158545364e-08 -3.7175884326601637e-06 -2.0661879442340260e-06  8.9729389136318112e-08 -2.3602497254854885e-06 -1.3151620422103260e-06  -1.2805095350461981e-06 -2.5150284613207856e-06 -1.3423287976127553e-06  1.0835944964668901e-06 -2.7780544722387610e-06 -1.5899537824785078e-06  -4.7815991428393528e-07 -3.9320950611886577e-06 -2.1640695322372143e-06  -7.5686573757504900e-07 -3.6218313030908154e-06 -1.9797278376999537e-06  5.2299442986104851e-07 -3.8507466667048796e-06 -2.1618542054626996e-06  4.7268633026118346e-07 -3.9246133878705280e-06 -2.2007333881148940e-06  9.5836447775997893e-07 -3.0060719281935192e-06 -1.7112597305876518e-06  -1.2816486824901402e-06 -1.1243114270599526e-06 -5.6962393813258748e-07  -7.9922890861995363e-07 -3.5984027843647655e-06 -1.9648927157171946e-06  -1.6246184709878418e-06 -2.5124085461337615e-06 -1.3261003718107266e-06  -1.1666065994759130e-06 -3.2300901818740508e-06 -1.7444934376452574e-06  -1.7055051595637891e-06 -2.1598371101944171e-06 -1.1267458570048170e-06  -1.3546339630748699e-06 -2.8405958071010151e-06 -1.5200256114147860e-06  -1.7957661114010962e-06 -1.7512761046873391e-06 -8.9588215732939601e-07  -1.5230289816944417e-06 -2.5004986547503306e-06 -1.3238447742836819e-06  -1.9365515513150106e-06 -1.2621939025191559e-06 -6.1811335743358168e-07  -1.7736267750180459e-06 -2.0127973688537798e-06 -1.0421288598071698e-06  -2.1040349109461022e-06 -6.4547906925871541e-07 -2.6828813182687534e-07  -2.0407852826624808e-06 -1.4499803069096221e-06 -7.1796908396496495e-07  -2.1997532882229815e-06 1.7739789635653626e-07 1.9299593292522990e-07  -1.2837583964981930e-06 -3.0687081193308996e-06 -1.6498032174500258e-06  7.3509114841618184e-07 -3.7112998117370455e-06 -2.0934856516331953e-06  1.1335730871119682e-06 -3.3166886533417551e-06 -1.8913543150926743e-06  8.6833015108056259e-07 -3.5283447257293133e-06 -1.9975593314962289e-06  -2.1329503871421532e-06 -6.0427843693725477e-07 -2.4415648074163661e-07  -1.6859559164455033e-06 -2.3308287357934237e-06 -1.2225848181039993e-06  1.5181377693261844e-06 -2.7385888061561156e-06 -1.5866826719831665e-06  1.6996817136432591e-06 -2.3012605107178088e-06 -1.3515051976107319e-06  -4.5629821596902227e-07 -3.9544874337257620e-06 -2.1774488477255552e-06  -9.6432486506689074e-07 -3.4678684835252883e-06 -1.8852826475269754e-06  -5.6921315500046212e-07 -3.8926695849657258e-06 -2.1382565040313098e-06  1.2677175681714347e-06 -1.2234971261926847e-06 -7.3417580326014584e-07  6.6444682433201581e-07 -3.7824820601784825e-06 -2.1300003431219969e-06  1.1159064037022009e-06 -3.3712640973331740e-06 -1.9209169508581820e-06  -2.0538522740728442e-06 -8.3202502098244054e-07 -3.7408389514029276e-07  -2.0603452148790507e-06 8.1739554699801894e-07 5.4258157357310034e-07  -2.0312372955931598e-06 -1.2122637536899015e-06 -5.8630818669829920e-07  8.7511466096701137e-07 -3.5494688615224936e-06 -2.0095867639188645e-06  1.4214483606871359e-06 -2.8738165340726038e-06 -1.6576616800357197e-06  1.7310775840954793e-06 -2.3692351154571828e-06 -1.3906184441155735e-06  1.8773061302052948e-06 -1.7366178800354671e-06 -1.0454260298384765e-06  2.0821913653383605e-06 -9.1778751507741177e-07 -5.9929531455896548e-07  2.0513728671516201e-06 -3.2188923875980266e-07 -2.6690249580803400e-07  2.1071692655295190e-06 6.9356785398325869e-07 2.9487078658353517e-07  1.9816922117836853e-06 1.0750032488106004e-06 5.1217586571940102e-07  1.8231091346628186e-06 2.0243227613236400e-06 1.0464078345970296e-06  2.0206078367973623e-06 1.2531536338051290e-07 -1.7123352067931139e-08  -1.9087437834292519e-06 1.7824395966332199e-06 1.0722333464507140e-06  -1.7181620967757120e-06 2.1038965681192315e-06 1.2426469183026365e-06  1.7034530089992614e-06 2.2180919722377241e-06 1.1591992516193412e-06  1.3940082192168165e-06 3.0066428261038554e-06 1.6105878137236027e-06  1.3084037721734876e-06 3.0636532656519343e-06 1.6459367926323726e-06  7.9880495934157977e-07 3.6559793308530710e-06 1.9968993512165831e-06  7.5657139004662235e-07 3.6440104117034773e-06 1.9920627655099607e-06  9.1207080846667524e-07 3.5997687636067192e-06 1.9608072417410914e-06  1.3097459353159810e-06 3.0760383321935106e-06 1.6527600801822090e-06  2.9622431422847752e-07 3.8795384361781395e-06 2.1426806998210424e-06  7.4565834914654889e-07 3.6668161453810028e-06 2.0052017026449977e-06  2.1306027274330665e-07 3.9193879100465772e-06 2.1683906039126854e-06  -3.5243464060875812e-07 3.9494497776962826e-06 2.2093695204794850e-06  1.4108734882716137e-06 3.0458439434149428e-06 1.6316431710693599e-06  -1.7326948830032178e-06 1.1225135772901135e-06 6.9803308205096054e-07  -1.4337862408072347e-06 2.9450494365990881e-06 1.6977670012728193e-06  -5.8736644461008831e-07 3.8623493731471768e-06 2.1710639867901596e-06  -9.5213887287412682e-07 3.6458843338015900e-06 2.0664600743293555e-06  2.0017213902306916e-07 3.8950445466928734e-06 2.1554191909521320e-06  1.9591812510102818e-06 1.7425587566617165e-06 8.8402343182031340e-07  6.9620947210413545e-07 3.6554791955440865e-06 2.0010259855679891e-06  2.0306244313165801e-06 -1.3109117860499605e-06 -8.1549388201994085e-07  -6.7104989902400573e-07 3.8296510317551882e-06 2.1564900022028538e-06  1.2722432713958661e-07 3.5998290506533652e-06 1.9945347750593497e-06  1.5248532224560351e-06 2.6696348675282023e-06 1.4177353238343852e-06  -1.3226020896378464e-06 3.1117968521596420e-06 1.7856354787801826e-06  -1.4361095186903519e-06 2.8250345847322504e-06 1.6311887703737273e-06  1.7534447203064402e-06 2.1816917040858140e-06 1.1368297733043510e-06  -1.9193594341279446e-06 1.2397528435923188e-06 7.7118263740715459e-07  3.5784491622231330e-07 3.2059179770300718e-06 1.7657845562614291e-06  -2.6034163654473760e-07 3.9287979169384295e-06 2.1939421184437881e-06  -1.8410858566484342e-06 1.9190555083369433e-06 1.1452299459876774e-06  -1.8406001520024648e-06 1.6911609809829370e-06 1.0185952258398522e-06  -1.7092700609306649e-06 2.0183925887205225e-06 1.1947607906021401e-06  1.6350829829998149e-06 -2.3412758471401895e-06 -1.3709636868684918e-06  -1.3268297484970003e-06 3.0374968785209096e-06 1.7445373219402777e-06  -9.5476567690585934e-07 3.6836115358311911e-06 2.0875333614457339e-06  2.0040332253289905e-06 -9.9017899076102128e-07 -6.3615925605742359e-07  2.1105670858829659e-06 2.5214733524986277e-07 4.9480064197077175e-08  2.0996589288859910e-06 3.9704288509242668e-08 -6.8080960068332464e-08  1.3002859398286926e-06 1.8783897096698537e-06 9.8777539022232855e-07  -1.5754573245144086e-06 2.6596022999919365e-06 1.5452600410479442e-06  2.0063808207093768e-06 -1.4873890856015228e-06 -9.1250051976991444e-07  -1.5197428343487702e-06 2.5224795588151512e-06 1.4666853877287652e-06  1.9917185680912639e-06 3.7441342761449225e-07 1.2251103619678373e-07  1.0319342880776239e-06 1.1725008563385027e-06 6.0711749259091486e-07  2.0480865547875654e-06 4.2194006342176353e-07 1.4649601256330683e-07  -7.3645428428703801e-07 1.6778519090474582e-06 9.6379916098625966e-07  -2.1402981153668010e-06 4.6299462555372337e-07 3.4911559371205162e-07  -9.2474035933566337e-07 3.0625768160131679e-06 1.7412092642086798e-06  -1.0024735691197195e-06 3.6600732816982502e-06 2.0765040898112787e-06  -4.2088571305371101e-07 3.9244040906081081e-06 2.1983932677866380e-06  -4.9240970469130307e-07 3.8815464355575408e-06 2.1776529468826538e-06  -1.1082061743239365e-07 3.9342043817102228e-06 2.1905267997683838e-06  1.5924336924995087e-06 2.3481771574880619e-06 1.2362382496396370e-06  1.3841711723151147e-06 3.0522007519143103e-06 1.6363212432080105e-06  -2.0518205467242269e-06 5.1377973849744640e-07 3.7353242998851668e-07  2.1688709355093910e-06 8.0514550376337293e-08 -4.8378876684563709e-08  1.7761686545585503e-06 -1.8996634604423592e-06 -1.1316691492829085e-06  -5.0855297252460739e-07 -3.9344103886660702e-06 -2.1640510877503978e-06  -1.5312412493313327e-06 -3.1546616173433469e-07 -1.0952968682283596e-07  -2.0349929267841797e-06 -5.5750591034404584e-07 -2.2237593993767521e-07  1.9952673579268478e-06 1.5972870525150009e-06 8.0176403052464020e-07  3.8648244870910342e-07 -3.9198462404577325e-06 -2.1943840553185199e-06  1.3779613949889926e-06 -2.8688272888530255e-06 -1.6530228226588011e-06  1.1440163996565611e-06 -3.2042695231168457e-06 -1.8293447218726109e-06  -1.1421869720221353e-06 3.3592987662324095e-06 1.9153974844916087e-06  1.9050359830593918e-06 1.3456847291085440e-06 6.6585226064298630e-07  1.6704101668555591e-06 2.2840640665375108e-06 1.1972706470905214e-06  -2.1719125888797066e-06 4.2905367391433514e-07 3.3161587868759570e-07  -7.3844166509340681e-07 1.7771786842220686e-06 1.0190685493920690e-06  -8.1533316351811160e-07 3.2512341831754873e-06 1.8413267804544880e-06  1.9501228124876122e-06 -1.1578097023900832e-06 -7.2697727995213898e-07  -2.0583220229831811e-06 2.6041444037997730e-08 1.0283341574528877e-07  -1.5690297424055965e-06 -2.6701945452865240e-06 -1.4161497395390289e-06  4.1003880313847568e-07 -3.8955855892610756e-06 -2.1819165902531143e-06  -9.8533811938652381e-07 -2.8246287497152601e-06 -1.5270087610301320e-06  -9.7689811126109954e-07 3.6211527245336953e-06 2.0537825946061773e-06  -2.0775470197238587e-06 1.2066100071196108e-06 7.5956021716633302e-07  1.4313431781231077e-06 -2.9267687407343850e-06 -1.6875057115718502e-06  1.8233081113873618e-07 3.9254637630722281e-06 2.1730854708657723e-06  -2.0901785082492571e-06 -1.0641049362530882e-06 -5.0146357355956001e-07  1.8830283000999717e-06 -1.6607813930958007e-06 -1.0035383758707960e-06  1.9813056079413243e-06 -7.5545382668124437e-07 -5.0477470221660734e-07  1.5214129593865927e-06 2.8822985579280170e-06 1.5360349217921771e-06  -8.9780288518507319e-07 -3.5395424893640870e-06 -1.9279592007944473e-06  1.4315697928493961e-06 5.0090744880216442e-08 -3.3628882360025979e-08  -1.0005950737127262e-06 -3.4775234890258495e-06 -1.8890896782598975e-06  4.0302289588745176e-07 3.8231226510482156e-06 2.1067522197572046e-06  -1.6014740898489154e-06 2.3199427762895825e-06 1.3576685835176517e-06  -1.8492665779900521e-06 1.5081763169455483e-06 9.1730448000950280e-07  6.9794526740199242e-07 -3.6882693230243794e-06 -2.0790956496752190e-06  1.9399834216599369e-06 1.3428925017716679e-06 6.6280063285351243e-07  1.6837289379264621e-06 -1.9709951738810731e-06 -1.1673311883877813e-06  2.3729297967255799e-07 2.4724750186956041e-06 1.3634729706184962e-06  1.8843602747391383e-06 1.5481122197105272e-06 7.7920475091333717e-07  -8.3283832338901491e-07 -3.6508601995057030e-06 -1.9925941816749067e-06  -2.0299717644420577e-06 4.3331582240567505e-07 3.2789022298803880e-07  7.8998722211502599e-07 3.6210341929223770e-06 1.9778630486501596e-06  8.7154518414511214e-07 2.8649367929828000e-06 1.5542883585908521e-06  1.9903272341976159e-06 1.2784742223698868e-06 6.2484976397675438e-07  -1.2882772627994603e-06 3.0599012736799311e-06 1.7553296914388691e-06  -2.4302721597086150e-08 -2.5265568864825662e-08 -1.2993736130748357e-08  -1.5698334489982137e-06 2.2423771645746730e-06 1.3132162476308237e-06  5.9798413240378110e-07 -3.3287143671409129e-06 -1.8750423438335798e-06  1.7928901647533686e-06 1.2573069060279335e-06 6.2156572446148438e-07  -1.2363957114414600e-06 -2.4330044382301965e-06 -1.2986516481901097e-06  1.6674853146359458e-07 1.8151352695350924e-06 1.0012960233262675e-06  3.1150274103092517e-07 3.3225097266533609e-06 1.8325502204421504e-06  1.9518191116682566e-06 -7.6892684007523645e-07 -5.1099417535898474e-07  -1.0757684458629556e-06 -2.3689587548210127e-06 -1.2699649307324285e-06  -1.9004588580229906e-07 2.0168026626803526e-06 1.1286560422625776e-06  1.5624198678301876e-06 -1.8782538154080528e-06 -1.1105979641226756e-06  -1.7777434088199290e-06 7.4232598614954621e-07 4.8874204797838799e-07  -2.1404166711597846e-06 -4.5564170821285861e-07 -1.6125620586972928e-07  7.1421504201006446e-07 -1.6233251878320366e-06 -9.3255040381255548e-07  -1.8663135423096528e-06 6.5688523663935988e-07 4.4507517249878945e-07  -2.6252182610654214e-07 -1.4208286776210026e-06 -7.7811515600512745e-07  1.7118298513923186e-06 2.1089433466811298e-06 1.0981987254918626e-06  -8.7728925935003007e-07 3.2903843766520180e-06 1.8657377048824855e-06  7.7577489722205021e-08 -3.4326849863972916e-06 -1.9104650025909415e-06  1.4244297007105851e-06 4.6712832565126499e-07 1.9837580155914368e-07  2.0912582905676352e-06 -7.3211471414991441e-07 -4.9652828468602102e-07  1.2911072905333061e-06 -2.8479999734667608e-06 -1.6377228511945275e-06  1.6024771773970787e-06 -2.6035191120743259e-06 -1.5152612698821517e-06  9.8878612595264602e-07 3.1017793492948531e-06 1.6808403417167343e-06  -6.4882210883435517e-07 -3.5246437593239009e-06 -1.9303706780979974e-06  1.7421432306950898e-06 7.6625946214653521e-07 3.5092769986107490e-07  -7.4636644236440108e-07 3.5864929852044629e-06 2.0246294073364513e-06  6.1799286843316989e-08 -3.6599522633852063e-06 -2.0360530127961772e-06  -1.6427312629122228e-06 -2.3865011705200301e-06 -1.2553710311324145e-06  6.9975707559984342e-07 3.3978046568750852e-06 1.8577146074945425e-06  -1.1348625115225511e-06 -9.6468593368780850e-07 -4.8724068624682039e-07  -2.0408618882675104e-06 1.2960180086691067e-06 8.0765868393491966e-07  -2.0589096737383490e-06 1.2409515648492612e-06 7.7783961898859240e-07  -2.0403597568609549e-06 -1.3078774571221814e-06 -6.3903770928346988e-07  1.5945214658466230e-06 2.6702488279057616e-06 1.4150855194200548e-06  -2.0679961967881456e-06 -1.1244275610137724e-06 -5.3592998051565824e-07  2.1260308045043031e-06 6.9538063246687682e-07 2.9506819206326792e-07  -1.2058530298187246e-06 2.3653315861385611e-06 1.3659014394633611e-06  1.0208281328505325e-06 -3.3785173084719215e-06 -1.9208649167525124e-06  1.5068666752185348e-06 -6.0634099471873771e-07 -4.0156243280789731e-07  8.1281874442861931e-07 -1.7219530365776490e-06 -9.9157929200596101e-07  </DataArray> 
</PointData> 
</Piece>
</UnstructuredGrid>
</VTKFile>