<?xml version="1.0"?>
<VTKFile type="UnstructuredGrid"  version="0.1"  >
<UnstructuredGrid>
<Piece  NumberOfPoints="201" NumberOfCells="657">
<Points>
<DataArray  type="Float64"  NumberOfComponents="3"  format="ascii">-30.33828662243668 4.072532700100265 710.9778569060974  -30.62185530461332 -3.403342133612345 -715.9934442512634  6209.776439137805 4.628622686555426 -739.0533894025415  10656.01267601113 -0.8827482489316969 -754.4834376987922  13255.73015053221 -4.947090561429202 -667.0385428150288  14603.68286713254 -3.846298005899833 -385.128517494024  15025.41086084457 -2.338786677645362 8.642813838578789  14604.53880959829 -3.105262701185371 401.4387082001953  13254.67409551144 -4.062023396917786 681.5651772067234  10660.37506444404 2.211081810115671 768.2467428645074  6204.229421798296 3.528317534259046 749.1754516743979  7530.680348315601 -1454.975538265574 -717.5206868024029  7572.482381182686 1129.471791672095 736.8048328564049  14489.43900988001 -1643.893294708465 -180.8058879121777  11729.16502232903 -1592.041257309196 692.7998479930209  13671.41594600422 1601.453868520558 510.5561825385116  13642.99466018613 1602.111235465935 -501.4806423716564  8299.418067598133 1328.161656677447 -726.4416679467176  3098.063732929591 -1206.981804333014 699.8298119090741  11695.52955036397 -1467.730892743168 -687.1561185855317  8567.455895591109 -2631.643694682413 -620.9097748216585  11634.67905462438 -2838.777885955421 -499.9280406852948  8338.754409746789 -3704.836891907107 -419.025279340504  10977.19690654149 -3756.38519804596 -230.1871995645531  7260.601684000345 -4322.192750209406 -169.2754485839782  9888.754585675122 -4148.096940733681 56.38777579630809  5491.746892867165 -4469.429090710954 80.46724606549148  7901.452154601812 -4065.423474457233 313.5226307065398  2975.909036815238 -4203.589189678896 290.2575077747736  5427.915734790988 -3515.42425091919 489.708288480409  -212.8814518527215 -3627.1020804828 457.1005612334064  11446.76486464337 -3522.962632576122 307.2267599439108  11709.64139527271 1470.263793764 706.1952022059643  11464.03645220647 2843.939504707375 530.6074229891202  13041.5840696842 2902.10442805805 271.646273833771  2175.992996015448 -2697.465508580877 600.7713531207989  7576.694672556567 -2538.615468274568 638.2442366065809  8625.718460139324 2487.639754897964 649.4876420506557  7990.859754607224 3609.02118605222 458.2267612217332  14515.25190244133 -1605.468732002741 195.1263321721969  13047.42635492944 -3129.867188858869 28.36219262789739  13724.25109180508 -1607.783330768539 -486.1773592670567  3064.086303296396 1215.06032407431 -693.8697895260817  11636.14489454699 1422.984984845771 -694.7465570297138  11391.62183509768 2823.971624279719 -523.904139599147  3711.683052885709 -4102.125026781619 -322.9673567862949  -2623.097518132617 -4242.121538771506 267.7508042482447  3976.250883159879 -2478.017167691389 -617.7142230515532  12975.59888608788 2927.31938954164 -263.5089760824793  10196.24587477269 3858.947970063835 -276.8771166585273  7799.066056323507 3495.612112305564 -475.3066630296481  6052.317230662302 4230.126626727311 -256.1733276569599  2824.386291993485 3794.621695525399 -416.9520128478916  777.6681058999696 4359.940307580663 -219.4026533137231  -2906.203837610812 3910.328995386165 -391.7746548858457  -4572.422340914751 4411.888438838213 -177.7821888894153  -7869.59214981474 3990.351017467959 -347.6767559060053  -911.5834986691028 4537.638169116495 13.30176673479731  -5799.858554788983 -3670.780069087239 454.1839206792486  -7507.751363266209 -4227.867316399118 241.9877844838505  -8906.971512433211 4268.014363727054 -102.2943864387102  -11413.6334639338 3584.765401801228 -282.2709154187906  -11911.42169036764 3646.679938558525 17.54398486726349  -13675.60381975283 2564.115563296435 -204.0428315493564  -13812.02926633113 2446.906529084885 173.5122126074783  -12713.19789710184 2328.387751285225 -524.1619579850548  -11705.5857863424 3337.846280266408 343.4198817845891  -14410.44408707337 1089.104812875739 -377.9419967017585  -13245.98368447895 1957.132205320193 503.8217318116359  -13111.55276953721 658.3349334465761 -678.3444713322788  -14056.74515022623 -778.4127831127303 -524.9984799076639  -10620.78523582547 2677.989129754248 583.3585611581526  -2829.427139355342 -1868.662937053466 656.944548928577  -10105.10187424168 -3463.922636667071 428.5224904141883  -12196.73590929669 -976.7646258828082 -721.7035980625731  -12577.39668799523 -2339.660329520398 -536.6390916239304  -14634.83627164842 697.3715116213506 316.883896440535  -6181.561882594071 3171.889338319962 -558.3688107154981  -11765.98519566449 1182.584177002144 714.5221866747793  4085.292016322227 3087.291684424959 556.1168699062871  -14129.01641084606 -2046.717373402642 -221.8374634406935  -10541.09006744156 368.6400366582032 -770.1568228664839  -8443.220470254248 1900.278911296859 688.1548100158964  -9902.97948663528 -2289.087598934513 -663.1727302210207  -9891.927440033076 -3436.957861269494 -461.3385259028767  -8481.198546645781 3734.612020242749 408.2546738959251  -4400.113727466181 -4511.99155195299 50.12665109178863  -9035.84267841339 332.4805411319884 753.5437437538362  -12101.14656161834 -521.0197491317632 725.5531988685003  -6241.36894332632 -3159.452970959268 -562.551010840695  -5989.166191035636 -4037.99601664371 -359.681203558437  -5719.578964033758 -1956.240200554776 -683.2736487595801  8471.27763015486 4328.50672667047 -18.63849715939572  -10972.27691227367 -3830.830147148284 175.2722405536977  -12942.4874787497 -2763.77798403459 350.912723800912  3246.777365393729 3978.04459198065 371.546463638318  -1245.265998648341 3529.034072008384 472.9172439789805  -444.576597822773 2642.428497709056 598.4052349204882  -5434.143331434029 1156.060736535683 716.7274880517396  -8203.041682108156 -2677.997757593984 618.741137209471  4473.102130639598 3039.626625494021 -559.1951770261309  -9264.523492973516 -4112.544922815672 -217.6406586118707  -1467.5920248333 2262.738815424567 -634.5914987762771  -3376.388380233121 980.8123759298215 -710.9235355724063  -2025.368595247002 4247.691774271949 266.9555898499457  -4338.310837909049 -703.2593746786787 715.417671691278  -1341.738268742511 -3701.140499423322 -441.2508561006761  -8598.435325243781 -1218.052834123045 733.877251690139  -11816.04237253086 -2177.406436670848 605.6149913463454  -13817.11880462575 -1134.462777890696 530.9708733517082  -14513.80184604505 -1522.256389361237 172.6642662263214  -14953.37005690191 -200.9708088797077 -124.5504534887321  -7299.600059180273 2069.041772939306 -687.593912627373  -10194.86091549558 2471.4139004861 -635.4222042574116  -1544.974535958176 -4273.25771463064 -261.7917595878743  -657.9406547780302 3323.602073789177 -513.4839991457758  6847.311872331596 4260.714798160408 235.032024312213  13673.43684882903 -1536.12602704957 520.582863715684  989.3590678584977 -1257.959902029333 -685.6978273723008  2776.703322457334 -4467.860695495358 -122.6652835710686  -5720.258678296002 3006.121585588822 571.0651126975075  14515.21570911457 1542.951001685393 -185.5924635496379  10433.48526703231 3853.076902681665 268.9606750538605  11884.25661975232 3667.013619915965 -5.260906477068469  -12126.7561551759 -3325.545972467354 -282.0757645444413  -5715.258799969986 4486.306685444433 62.57523417296869  -9187.097494106207 4164.962033414918 170.4837176151936  -1069.880706030096 -2739.050702530853 -589.6239654888219  -4743.743447513632 -512.0513207045411 -733.0379145802448  -9204.097170326635 -896.5001119425513 -760.0252182399811  4021.157688577131 4506.890789333446 -39.43207065647304  457.811503410552 -4512.787242388104 88.54402077018028  9507.039067617898 -3239.400975520211 521.6236753699056  14525.45247200304 1562.485990025954 179.4793383320883  8288.16063153974 -1317.411909566061 741.0236106861722  -13107.3005190042 -3096.373846623495 22.1212925536334  -3461.3311974337 -3010.218361484302 557.2982683112025  8849.550182279729 2422.540168839708 -641.5839306256979  -13690.53320187217 468.9049821451574 598.5206117974159  4183.693533608963 -3427.8212887637 -493.8294828647251  4805.277681960109 2212.187460363968 652.3826931686997  2493.567136656011 4425.797824688364 170.6153406619924  -10442.61259334504 3311.481127881859 -473.5184622949501  13113.90192076958 -2790.077271246697 -292.9692647473488  -307.5234439539863 1157.968061407445 689.4189706065117  12304.84504922021 -2625.097353488728 501.4795340033894  -14640.0018608965 1472.079926812782 -38.3975789592997  -8556.005611606923 -4338.212620945949 2.164237423036581  -5468.844319935115 -4439.209151675494 -146.5108567351114  13738.61822069125 2634.716447244515 -1.219994180197389  -4405.649026613988 2267.653616336123 644.5338818336157  5452.271331420005 2078.590219491567 -659.0731935298243  -6699.680978402414 346.1670357332799 -754.2472150773624  -6361.258704189145 4212.490660449464 271.9242059378196  13304.50683849591 -2611.096702283841 327.7349394482563  -1228.049671579773 -4513.71238202249 -82.45039796334522  -11229.51984686504 1390.656790001234 -722.183274911271  -8326.881083801718 1085.211279156432 -750.502603017705  -5085.119843525963 3771.759018453517 428.1580655477772  -11214.04815508999 -3857.056911858042 -65.49624279117992  -25.0729986678251 -0.5871548272862348 -1.041921468398935  -6241.001687914557 -1845.376944451501 15.34450910154803  9122.620025029886 761.1001732885486 3.714020467046029  -3879.976546585199 1881.16400797686 163.2949535492389  7033.604247061337 -1392.347241666498 169.676130445643  -4825.844263119731 198.2300551197567 -340.8904740618972  -9348.733043436867 392.0524970315433 -6.452200180579295  1918.501024078345 2085.087270302389 -139.1178523888919  6652.218860005812 -1086.052022481501 -232.0184336440772  -5314.528066191253 -203.6633982898022 326.9469211689533  5015.709755847641 1601.207665314128 270.6879252414172  -1896.029275890966 -1776.006545517057 -278.9638280678822  1639.847016293568 -2559.224490103536 1.531796930831229  4095.283872210486 693.1078572463625 -364.8648955400971  -1600.77749
[...]
<PointData  Vectors="Self-Gravity"> 
<DataArray  type="Float64"  Name="Self-Gravity"  NumberOfComponents="3" format="ascii">4.0307193166989891e-07 1.8797938397018860e-06 -2.7522225967646245e-04  4.0236900003720248e-08 -3.6147686229142763e-06 2.6769518126143032e-04  -1.0421921794508702e-06 1.5965295174447822e-06 2.6183778984745324e-04  -3.6139844978615846e-06 2.2398045788877007e-06 2.3147764098268317e-04  -4.2063866507867409e-06 1.0638235659395780e-06 8.9198945125688360e-05  -4.1916524277916399e-05 2.6662658627666396e-06 1.4854516063844307e-04  -6.3012268013966298e-05 -1.0299515144326348e-06 8.9197320022237710e-06  -4.0628043806069684e-05 -5.0271012500657448e-06 -1.2300428410491341e-04  -9.3232462478226516e-06 1.7247685891527260e-06 -1.3879337713955403e-04  -3.0415579128032219e-06 9.5620532687761793e-07 -2.3768523141753098e-04  -5.0983375861318698e-07 2.3901472570829165e-06 -2.3736537466003606e-04  -1.0280700768586873e-06 1.0045505959659706e-05 1.7080899798911951e-04  -7.9390923100456356e-07 -9.6997204353166482e-06 -2.4213790488784786e-04  -6.9099401349227341e-05 4.5961725876978814e-05 9.0351697975669655e-05  -4.6351800772385039e-06 1.4203948853385904e-05 -2.0568398059111638e-04  -1.9610703524195498e-05 -2.1023951189645967e-05 -1.6909367138889545e-04  -2.2283201420177358e-05 -2.5034219625164424e-05 1.9078980962975654e-04  -8.3583474790196118e-07 -1.0331229671101986e-05 2.2533210914710131e-04  6.2486291564507370e-07 8.9323147443399339e-06 -2.0412923945781105e-04  -6.8426449886864758e-06 1.7248598423649113e-05 2.1972355355153250e-04  -2.9610364909868634e-06 2.4604391245278674e-05 1.9729995918285248e-04  -9.8062804430245215e-06 3.9581938891546242e-05 1.6423125665984391e-04  -3.2773973510039374e-06 3.6286700003468030e-05 1.1213806228091152e-04  -1.3254003698876766e-05 6.0013362862801760e-05 7.9082973487857829e-05  -3.0175930509293520e-06 4.3286029955792552e-05 5.1578904959733709e-05  -8.9875402907086135e-06 6.1287516997534679e-05 -3.3294872033041971e-05  -2.3811383133625385e-06 4.8378369797051660e-05 -1.9543235764606438e-05  -2.8105526737518493e-06 3.2536860998831295e-05 -7.3262665891821031e-05  -2.4860085865507985e-07 3.6028798298830599e-05 -9.1985465626981722e-05  -8.1814129384366962e-07 2.7955470887298025e-05 -1.2024579728190102e-04  2.5510043283025310e-07 4.0703137916307613e-05 -1.6161236659212799e-04  -1.1778470264262616e-05 5.3779895492970705e-05 -1.1448014144034689e-04  -6.6021596125040936e-06 -1.9254216117909893e-05 -2.1188232898305932e-04  -8.0206170814437397e-06 -3.2652838412265807e-05 -1.5475946224442140e-04  -2.5570861705741061e-05 -4.7404507368656713e-05 -1.0918466164112287e-04  -3.3390548842745914e-08 2.5190749178580088e-05 -2.1385167927183546e-04  -1.4895595146012189e-06 2.4471666483824659e-05 -2.1945973763491973e-04  -3.7724111755108550e-06 -2.7634170815413338e-05 -2.1375973865528212e-04  -4.0247816458994577e-06 -4.3861291006622119e-05 -1.3461298490243285e-04  -6.1887199042957625e-05 3.8583301937798026e-05 -1.0011514859297724e-04  -3.1050931710980885e-05 6.5100143953338247e-05 -2.2986266684546160e-05  -2.5313377945011590e-05 2.5614009659972115e-05 1.9954982002424456e-04  5.8904215403434866e-08 -1.2087197651027946e-05 2.6097875895151544e-04  -6.0981121944151343e-06 -1.4955573203249214e-05 2.2249084104379946e-04  -7.8372979746552867e-06 -2.9852742637704836e-05 1.4299007593122440e-04  -8.1118046061247641e-07 3.0357031041559383e-05 9.9435633619129467e-05  5.8446478907633613e-07 4.1000493721410313e-05 -9.7494140936462030e-05  -9.3887271450890866e-07 2.3613206457700927e-05 2.1716168737170673e-04  -2.0302232549476298e-05 -4.0734962814012084e-05 9.9045526032233395e-05  -7.9724187689606086e-06 -4.4828392091723433e-05 9.1131374582904373e-05  -2.3960316627909842e-06 -3.7338705189418457e-05 1.5576175969733597e-04  -3.1529807140623686e-06 -4.4526645607494948e-05 9.0765394449030028e-05  -1.5846554116696432e-07 -3.8193788792933055e-05 1.4849010996293661e-04  -2.2730245525724985e-07 -4.5930257798606995e-05 8.4624725258636508e-05  1.0118151307720052e-07 -4.1370289171120750e-05 1.3039487019910200e-04  1.2396156486165148e-06 -4.2361681927141169e-05 4.5526136836148678e-05  2.5805043499475869e-06 -4.5525602149661623e-05 1.2111478224455948e-04  -5.0674120940982916e-08 -4.7138355527909482e-05 -4.7347004324266798e-06  2.0619407363685716e-06 3.2776846733756968e-05 -1.3270680339010749e-04  1.9756759279888331e-06 3.5583639800551875e-05 -6.4893442616882670e-05  5.9880572435307690e-06 -5.6540991698024478e-05 3.3358558599348778e-05  1.2313492808210017e-05 -4.8611311562136570e-05 1.0596492431090390e-04  1.5712913353496297e-05 -4.8486361721629811e-05 -9.8461240381128009e-06  3.3647008637267115e-05 -5.1079959678195489e-05 7.3410979499524272e-05  3.5147513729687717e-05 -4.6440838023623154e-05 -7.8582329820471906e-05  1.0467273582960814e-05 -2.1215366233546642e-05 1.1337474105677106e-04  1.3182954464092106e-05 -3.6932612743344208e-05 -1.0890188610055757e-04  4.0343399199382036e-05 -1.6102647965660361e-05 1.5370308082569573e-04  1.8771079028315518e-05 -2.4312834572724975e-05 -1.5642148954359415e-04  9.5021680464806952e-06 -2.2881327563250485e-06 1.4557068677575367e-04  3.2792707985093701e-05 1.1200303064815087e-05 1.6405742864059278e-04  5.8176872270308648e-06 -3.3846516441172685e-05 -1.9955365621048395e-04  8.5647658591197227e-07 1.5392773813751927e-05 -2.2671250631509928e-04  5.9386728079022787e-06 3.4396477826859176e-05 -1.4310443820368825e-04  8.6286418173704611e-06 1.0819294463438189e-05 2.1983339140262600e-04  1.5104718682940592e-05 2.9679156364302662e-05 1.9752393579039205e-04  5.2079656726892323e-05 -8.8380041673985793e-06 -1.2028107633330714e-04  1.5602945354644689e-06 -2.4866216863194197e-05 1.5077991326882526e-04  5.1814866177265030e-06 -1.0393318660184720e-05 -1.4432177466553126e-04  -4.2904934730016096e-07 -2.8074357829721477e-05 -1.7339642383362180e-04  4.4505434439822998e-05 4.3107905148619122e-05 8.5216193039435367e-05  3.8590611020732800e-06 -1.3425802870864118e-06 2.3885176336234962e-04  1.8468098432500607e-06 -1.7800622304854602e-05 -2.2058371444788339e-04  2.0349041275751087e-06 1.6402282262321551e-05 1.6742931578638239e-04  4.5022930718651620e-06 3.2353544867524709e-05 1.4419501609239780e-04  5.5388350321617251e-06 -4.4967274044741521e-05 -1.2962022207663900e-04  1.5144178751961995e-06 4.7023063879444683e-05 -2.1493991550724956e-05  2.6483699284972186e-06 -3.2084316312858555e-06 -2.4144661815715912e-04  9.3025555392209014e-06 4.0745629052744653e-06 -2.2117904417947361e-04  1.3901116762835149e-06 2.8577594402026231e-05 1.6286977371917678e-04  1.8101638686172512e-06 3.8540345944475547e-05 1.0711774305549883e-04  6.3626920850254179e-08 1.6763629534464460e-05 2.3260508078596596e-04  -5.8283222985976232e-06 -5.7511092763905029e-05 -3.5732256373827561e-06  1.0884461272750317e-05 4.8131193001390027e-05 -7.7049795665821289e-05  1.9693987948238655e-05 3.9949064575001670e-05 -1.2407970010358700e-04  -1.5878127244096766e-07 -3.3729649906529758e-05 -1.2142823574162807e-04  4.1842328512199711e-07 -3.6088740978235032e-05 -1.7312324148254532e-04  2.1897083752060682e-08 -2.0441667919743547e-05 -1.9701503677108006e-04  3.6943083334442143e-07 -8.0606692332608534e-06 -2.2720226134133271e-04  2.9452543306210896e-06 2.5849627433339733e-05 -1.9011661209757100e-04  -6.3538968650674948e-07 -2.4889553806800581e-05 1.9282952537752395e-04  4.5997846069734999e-06 4.1530112790131642e-05 8.6807530356329516e-05  -2.0404871051922708e-07 -1.8821030136326856e-05 1.8650738640129666e-04  -1.2602835436535968e-07 -1.2001205244615219e-05 2.7388696838655219e-04  4.0363029967872350e-08 -4.4606373099368945e-05 -9.3345286654247100e-05  1.1923963174446569e-07 2.4421133838528392e-06 -2.6726682362955898e-04  -2.2689776824804476e-07 3.9264227038707545e-05 1.5865394378137236e-04  2.8491892081019370e-06 9.4459709165562006e-06 -2.1787439540871731e-04  9.5653942795696382e-06 2.2633190021739471e-05 -2.3167202635273362e-04  1.2330595844111929e-05 7.3167027731890836e-06 -1.2334298220292842e-04  4.9995810597735112e-05 3.0676210968716586e-05 -6.9116129261901781e-05  5.4865639668011713e-05 7.2270459107024278e-06 4.9027324815013275e-05  1.2319343654502315e-06 -2.0798416687752299e-05 2.3215419977565187e-04  4.0297333993594125e-06 -2.4207508177995548e-05 1.8461964404828564e-04  1.9414315120342831e-07 4.2668677762935861e-05 1.0244131362461443e-04  -4.0115175705702637e-07 -2.4018165527393000e-05 1.3125460350150371e-04  -3.1842960100982282e-06 -5.0265615940331346e-05 -8.8313863232072987e-05  -2.7758653482368178e-05 2.6933140725314419e-05 -1.8392450700125483e-04  -6.1893383617154049e-09 8.8097454043327049e-06 2.4166478927237889e-04  -3.8990140315599776e-07 4.4838389826861661e-05 5.1617624014781332e-05  5.1225520478967471e-07 -2.0515963535397126e-05 -1.8796101797303484e-04  -5.4341543832384724e-05 -3.4862153419309713e-05 9.1732344478344946e-05  -7.6456851553521742e-06 -4.3183624638203611e-05 -9.0546362993140900e-05  -1.7002547099184235e-05 -5.7341187627809813e-05 -1.9631610178142458e-05  2.0801997856306281e-05 5.6724450609921454e-05 1.1691242243605362e-04  3.2276128742294072e-06 -5.1647385648772840e-05 -2.4340562457091394e-05  6.2294215549824024e-06 -4.9494465411875791e-05 -5.9077146881106362e-05  4.3605217338574374e-08 2.1849254269191809e-05 1.8101756192351386e-04  -4.5689347279159586e-07 9.2446720361441713e-06 2.6427086320624145e-04  1.7209935257799622e-06 7.5809388093650307e-06 1.9241843903714754e-04  -6.4550649274002351e-07 -4.4174087144556844e-05 1.9936242510553353e-05  -3.4156392243800787e-07 4.3860422725344878e-05 -3.6542463025262605e-05  -3.6562837527780417e-06 3.0068762857927677e-05 -1.4805591617892249e-04  -6.0309406441424551e-05 -3.7490721955821035e-05 -8.0048781359776268e-05  -6.5703497919279969e-07 9.6998205712162526e-06 -2.1124143472091633e-04  3.1105126675424410e-05 5.5111977327702852e-05 -1.8041729240451688e-05  6.8536453648127664e-07 2.0905678461329642e-05 -1.5558192915630809e-04  -2.2971352172618994e-06 -2.5592309962334443e-05 2.1267916042486346e-04  2.0587702761967385e-05 -2.6506557941343363e-06 -1.9937133760487819e-04  -5.8742190300782894e-07 3.0791807418998215e-05 1.6155435929572238e-04  -3.7309174810361431e-07 -1.3303822094125386e-05 -2.0752550809276308e-04  -1.3191779380789870e-07 -4.2425859872201208e-05 -6.0175484982332728e-05  5.6861200717270534e-06 -3.7842512075931457e-05 1.5795464682146022e-04  -2.8536873698021970e-05 5.3429277818977512e-05 1.0866893496581195e-04  -1.0511436340514387e-06 -1.2749647027894078e-05 -2.5279630946246874e-04  -1.0860252164294685e-05 3.1762173087117134e-05 -1.8156799346089980e-04  6.2569157295500481e-05 -3.6468656818008623e-05 3.0403724113983076e-06  4.4291722569880970e-06 4.8101830551710271e-05 -4.9038627260253172e-06  1.4797078341288270e-06 3.7818788895187534e-05 5.1910338760103108e-05  -3.4000870641810504e-05 -5.0214914345414551e-05 -1.2460973442562505e-05  8.0157266995732219e-07 -1.1608581757717200e-05 -2.1972464138670826e-04  -5.5681836607379683e-07 -2.0863287796372752e-05 2.1061056068247144e-04  1.2638507813440302e-06 -2.6142937374467418e-06 2.5790580696280182e-04  2.5450090030689488e-06 -4.4480533257276560e-05 -7.5994817476281930e-05  -3.1678590655969173e-05 5.2194193014546608e-05 -1.2875101136858015e-04  3.0959820524265124e-07 4.8004349498381973e-05 1.7477328102166549e-05  5.9840584584022728e-06 -1.6814471664055223e-05 2.7355241467425678e-04  5.3788381646094449e-08 -6.8609356763095584e-06 2.6548390687841699e-04  1.2244674491721680e-06 -4.1001623076595191e-05 -1.5141708772585055e-04  1.7767975370328654e-05 7.5032217851069509e-05 1.8416292127729167e-05  -2.4089440390074179e-07 5.7369437271165102e-06 -1.2364881999933811e-05  7.8651842908455202e-06 2.7592521038977930e-05 -1.1170374469768340e-05  -2.2940685710303836e-05 -1.1710919961302969e-05 -1.4427984415106700e-05  2.9408992660768392e-06 -2.5540914973963751e-05 -9.4308070028093654e-05  -7.7768674125138407e-06 2.0905916220372290e-05 -8.1668984430569280e-05  2.1997504226470722e-06 -4.9958918935502394e-06 1.7100752515886440e-04  2.0960350983183451e-05 -9.4048946884638892e-06 -8.9970513205272503e-06  -9.1299769828518381e-07 -2.9398094935775707e-05 9.7798213164775966e-05  -6.9290140949042828e-06 1.6678243023315053e-05 1.0496800582200275e-04  3.5079644942759992e-06 4.5371570013037991e-06 -1.6052517743323283e-04  -3.5044296754051156e-06 -2.3828841759914345e-05 -1.6291554106688573e-04  9.7789579134122920e-07 2.0059432953037447e-05 1.1308217137915573e-04  -8.3778572785720025e-07 2.7603679108235554e-05 7.5243514786860830e-06  -1.5516098325194381e-06 -1.0429661167095859e-05 2.0794106823416849e-04  1.0834301607997776e-06 2.1819048943788555e-05 -1.3160986609214785e-04  -6.9601234320450856e-07 6.6965432666204357e-06 -2.0246712029457068e-04  4.7112841170851869e-06 -2.5579172902143476e-05 6.2286359082897266e-05  1.7018807074325518e-05 2.2230025859145583e-05 9.7797305850869139e-05  -1.3446787028294559e-05 1.8278158307438073e-06 -1.5486704593834375e-04  1.9962445932659228e-07 -1.5930166624682186e-05 -2.0092756315794538e-04  -1.0162642084870790e-06 -3.7264309047059937e-05 -7.8422892711195319e-05  -7.4283841833579881e-06 -2.9102608118942013e-05 1.4190633988896934e-04  -7.3835325403449393e-06 -3.9672166890983769e-05 9.5168644638994379e-07  1.2493820573033241e-05 -1.7896038559544212e-05 -1.7611855274989128e-04  -4.1419084091731399e-05 3.0854256646821884e-05 2.7027341096607760e-05  5.3130033183812029e-07 -2.2994107952595133e-05 1.8134808608453871e-04  2.8251139912006047e-05 2.5684111233135045e-05 -1.2106857222459352e-04  -1.9949403039499736e-05 -7.2811175831716516e-06 1.5512281222380609e-04  -1.0580778344370776e-05 4.8177701804608713e-05 4.0221595290625577e-05  1.8419177005164009e-05 -1.7532184619762285e-05 1.7099116541858007e-04  -6.6497187991522994e-07 8.8245702768404112e-06 1.9012258360999633e-04  1.6799159409417418e-06 3.8718668792635622e-05 8.0700697812814134e-05  2.1190754761429797e-06 4.2256703501837036e-05 -7.8961536288118885e-05  -1.7918419808409360e-06 3.5459137245705402e-05 -1.1124564938130082e-04  1.3230087964112977e-05 -4.7047663601839229e-05 -3.8699663416878517e-05  -1.4950371607584466e-06 3.1421868381414996e-05 1.3696086039265875e-04  1.4653058508519987e-06 -4.0698026294032268e-05 2.3226970220642306e-05  2.7705515925503638e-06 1.4311639224152242e-05 2.0898935039586743e-04  -2.1119807372427790e-05 -3.6878629813400402e-05 -1.3525975910823427e-04  -8.6020248439050511e-07 -1.6255031818304792e-05 -8.4671511491989025e-05  -3.0083508993691473e-06 -9.3663579967027133e-06 9.9529142797076899e-05  </DataArray> 
</PointData> 
</Piece>
</UnstructuredGrid>
</VTKFile>