<?xml version="1.0"?>
<VTKFile type="UnstructuredGrid"  version="0.1"  >
<UnstructuredGrid>
<Piece  NumberOfPoints="201" NumberOfCells="657">
<Points>
<DataArray  type="Float64"  NumberOfComponents="3"  format="ascii">-10.54402651609892 0.162137375027583 116.8052298124733  -5.543630566478059 -0.9742123579012556 -118.3473394829641  1975.271864450452 -6.072802625444106 -136.7787518731911  3378.384549742125 -7.160967592489555 -167.2638271236226  4175.189360655243 -7.800771061379843 -179.9458198912118  4587.202616748474 -7.485387134293411 -115.6692867630628  4716.548373708738 -8.105874473829289 0.9632532698566663  4587.885464203095 -8.898709380857484 115.907063529749  4175.15015605899 -8.70290451347182 178.5468732376288  3379.341634917244 -9.568806910783923 166.3615290218085  1976.944588348203 -1.916016840374435 134.6812474104264  2342.753586625258 -1146.01005905738 -155.1522855854688  2377.288423575645 895.5672107699456 148.4321779457038  4528.573463022253 -887.0187758320111 -58.29466453425276  3654.821394592158 -1033.648663600241 179.0120511769791  4268.649617202081 906.9236641473893 148.5357778411798  4262.358166085786 906.2795881649643 -149.3059307778184  2596.638742465094 1014.964569308148 -158.8624620231698  969.5106532081792 -1075.662029939346 133.8430323818429  3652.222259393342 -959.2627007131817 -176.7291631073209  2582.613170228485 -1879.162951728994 -169.6899775168142  3549.822105096036 -1750.029460370595 -152.5600278788671  2435.080086172459 -2472.024385109572 -142.8613434502298  3279.348612190416 -2263.33301914125 -82.41827218400634  2067.253595534186 -2840.935520394771 -66.55781748744502  2903.341422451827 -2547.937828707187 17.62566184969299  1533.253526508912 -3013.305659755901 30.70635799206894  2278.721271643203 -2675.725401325019 111.6631803615767  824.0993325217244 -2991.878787522712 111.429975396438  1557.924771385608 -2558.820337714877 157.881259352219  -59.35731125823768 -2741.628014629373 154.5317909115097  3446.881546856194 -2107.777024565099 98.11085857420437  3659.626946058785 947.1842482741489 178.5635332949205  3490.912167211071 1756.923163333864 156.9917453300743  4007.240524756468 1632.596750285576 83.49548486972967  640.4597072642483 -2189.304888858454 153.3609863487779  2276.880791655148 -1890.252737518341 163.9837306321782  2611.442244106516 1775.162258408308 169.902295046367  2325.786846283038 2443.486300034021 148.0296035193275  4537.394339878096 -865.9159660112877 57.70541309842874  3996.693993865157 -1759.122383288551 5.633367359995888  4287.137565988744 -917.796036704033 -143.7447044293048  952.0343397293863 1075.895171500492 -130.4026946228745  3636.68195522008 928.7315826879127 -179.5898128742003  3471.260858655961 1751.486159406778 -159.2088503122049  1033.794442041993 -2923.717812216852 -122.6887229322158  -726.1785283186633 -3020.639034732046 106.141462007152  1186.804473721408 -2003.868558558354 -153.3220684084453  3982.915677288515 1655.192699981041 -87.57833194158751  3015.793153292981 2374.365953293772 -97.97279905986832  2275.607560806031 2400.001628386762 -154.6945330956214  1705.013017487146 2866.058505724528 -98.1707124792143  787.3218837525054 2787.261620293359 -146.460933072206  203.8176776110784 3085.905099556948 -88.34590359088753  -824.1143163579882 2852.23976462307 -139.2786124555619  -1285.574306673635 3027.874176260415 -70.06260115512872  -2285.691504880736 2652.31251344323 -122.4413418885666  -261.9752754814052 3169.348503227122 6.591545475577409  -1663.658833390501 -2614.157052325262 150.7297085413283  -2154.181357621592 -2775.836752144828 90.60824879348671  -2594.350220668664 2699.62621982156 -36.10842595777409  -3437.642374940466 2155.351845911737 -92.53338279700155  -3599.477994423233 2129.310843752532 8.222307519049441  -4229.854889496222 1421.9542674906 -62.51461909567497  -4278.540730854845 1350.950911912347 56.47134695876652  -3928.592940070811 1389.919757584441 -152.2877262099076  -3546.949396781664 2004.314093957761 114.3456597860849  -4508.248396158678 607.8813848262422 -111.8003987918708  -4117.189583904379 1144.668677936037 148.7074968856738  -4115.523509940013 410.2601215068805 -178.4099892392199  -4401.338987883172 -434.6100870875526 -148.9838588269416  -3235.432492641909 1761.91603599453 168.8236704569363  -866.6239067739639 -1594.015006543985 137.4308598772169  -3013.21101849205 -2210.200016219997 140.9320198914502  -3827.271802845652 -619.0685126003889 -180.2791451029213  -3879.468499208906 -1397.935481834619 -154.9036088484398  -4580.753157039006 389.6867245780138 98.22587083884616  -1816.749801248788 2332.361251585487 -165.0555483245157  -3684.669481667034 782.4352892235252 179.0489239226188  1180.426039699584 2372.288930505515 162.5942096572953  -4387.6639266252 -1112.587742031893 -66.81881473096456  -3329.494275099842 263.5901437411704 -168.3708877730357  -2602.182038229514 1436.902118651454 163.7871745104076  -3031.060267343922 -1578.042158132834 -173.6818033060104  -2946.556937076552 -2211.594674631928 -145.4493752938513  -2487.654570804748 2488.004295767318 140.0324450539107  -1219.476695527746 -3079.271331435791 22.2360565810721  -2863.367561498975 252.6077804975459 152.3167386794285  -3808.642318028522 -330.3080478598647 180.9176224307603  -1830.046342941033 -2313.501671105746 -164.1475085082954  -1702.260154215262 -2783.108504810485 -128.2494224523657  -1746.651972415363 -1585.09785850676 -153.5907252018274  2435.431528873029 2746.153553023962 -9.703367364976579  -3271.939890548819 -2304.387254448345 63.84228788747374  -3976.536950906484 -1586.847206868539 112.3713953225161  901.908924981732 2865.507932011715 134.9454210897532  -364.3268469423638 2680.159109102733 153.9641995621208  -138.1876332012725 2159.611735465684 155.5371953233038  -1701.689627840237 985.1340616640947 141.5312213510065  -2470.518165553298 -1923.983490275129 169.7575190802364  1296.915136063263 2329.341770145163 -160.99418150082  -2707.0280500417 -2590.875886241582 -76.00486440169726  -447.4752737999047 1904.313030359467 -147.7220524250876  -1061.373909989475 873.9553338456096 -132.4055412331048  -572.7595212191718 3030.083086337576 104.8508817255343  -1371.380106694458 -625.9963766730808 127.6544252139365  -375.3969847468164 -2777.008685257646 -151.2390970914232  -2689.580724844081 -932.2024733251392 159.9170228831236  -3646.122246153692 -1375.585175803651 169.1124681871549  -4319.347943004428 -642.8482117776274 154.777716337493  -4525.519213899604 -815.1506081585744 55.9156407549446  -4681.04339130673 -98.07711702035489 -36.12719833207101  -2235.32881064035 1598.315338819303 -162.219438742665  -3113.659661751157 1676.705499461294 -172.6673243530031  -426.3477903305178 -3053.315589564629 -103.6767598221562  -197.8674649955976 2569.393292068412 -159.6840249900294  1942.817809480699 2829.872537557514 86.46855565255228  4274.211890484 -878.1883499172314 147.8420706852477  308.5276563519643 -1132.433163215296 -128.2415766078121  761.6343780759397 -3116.937065251564 -52.20022375508699  -1686.502591400669 2267.380315594889 162.8301752951567  4538.184169353039 822.3207794123923 -60.39919091046856  3094.233977391854 2348.988321275443 90.48754696523217  3584.270216143398 2115.364802391545 -4.497255661725354  -3677.048799282288 -1948.786417683268 -89.98324841111568  -1614.802294488353 3008.373961538216 25.6372662820131  -2687.656705661619 2629.255953221254 64.46192185637489  -310.66467761108 -2230.585545557411 -153.7055095296568  -1502.599030188005 -450.3035646524169 -130.7328956507415  -2899.302611870031 -672.5717604163011 -160.4842433913485  1104.777333440472 3087.224344940944 -17.24074491140188  123.7064753579905 -3166.186373115574 37.46755617315085  2834.127529701794 -2147.366312718373 158.5242171972277  4540.178331505686 833.0512239544747 53.84966667040217  2588.006014641009 -1014.167606947376 160.5541928654208  -4012.289451622987 -1735.551481217987 9.85811410073147  -1003.230534892459 -2348.899195571224 157.6942518439394  2685.427764570879 1723.335014286683 -169.6557306754815  -4294.529607831258 282.0912556836569 167.7530905690177  1196.431947860973 -2567.343118048825 -157.6883531253838  1445.385019798333 1793.800920042356 152.0534661974503  678.519227713082 3091.958703072037 68.75331958173953  -3137.363310389401 2115.387549258328 -147.0994663023799  4035.97693204761 -1584.604661778158 -94.5529053517497  -103.146546141014 1042.634371602797 124.0951010129122  3780.102122280592 -1582.906991884059 146.9762404342546  -4571.850496495509 797.000177635687 -10.00655713021187  -2472.954904850998 -2749.932530989183 2.282719869535123  -1531.358529010584 -2995.378637344116 -56.94411892365081  4249.598376585244 1432.863734542022 -3.192173013012247  -1332.393296613996 1843.079451481023 152.8980151925225  1651.856059719419 1673.323703239492 -154.1074202404318  -2127.552533964376 298.2278630739017 -136.7007333747856  -1817.486415112669 2850.788643207165 102.9647324452805  4106.207867422753 -1479.265540745399 99.6317274424743  -336.2136219176219 -3164.606015614085 -34.19514103051072  -3510.634536787205 947.6743665375593 -173.8843585950424  -2609.639418954182 852.2426881499742 -156.3536533039874  -1458.055438435296 2704.174730170376 147.3343302502024  -3349.604607042735 -2291.459842098789 -19.7366238165431  -4.395676167309435 0.003294342468646336 -0.2573539885510309  -1917.418442833043 -1485.93165190789 3.876810467520424  2884.270032768105 578.6989437181448 -1.283234061191629  -1191.941587029717 1582.90566518293 35.71788924235891  2191.216440417809 -1124.142892198098 34.45576944051523  -1535.986283858388 178.013999476878 -57.97737503447087  -2961.564989053258 302.0964117219307 0.08145861853115671  578.4672062668728 1778.269675544368 -31.33710182633973  2089.726120728585 -895.10233552138 -46.38021607684733  -1688.555655062466 -174.828935846015 58.9252040193843  1552.01843387367 1337.911460656377 54.69456424146087  -580.7983689327602 -1534.308318962296 -58.37208501314354  491.0953630491731 -2115.650211467077 0.113316011320575  1292.49174085502 609.337021667439 -64.90148602836
[...]
<PointData  Vectors="Coriolis"> 
<DataArray  type="Float64"  Name="Coriolis"  NumberOfComponents="3" format="ascii">5.1631122143727305e-11 5.2063085148239084e-10 0.0000000000000000e+00  -1.4704394779245352e-11 3.6776478930658521e-10 0.0000000000000000e+00  -2.7049958681334385e-10 -4.1395891723686677e-08 0.0000000000000000e+00  -4.2611066995301891e-10 -6.2828030539553610e-08 0.0000000000000000e+00  -5.0775192740123834e-10 -6.8134480512775417e-08 0.0000000000000000e+00  -4.7264008630892161e-10 -6.8900483544780999e-08 0.0000000000000000e+00  -4.4568826787265187e-10 -6.8903904182936063e-08 0.0000000000000000e+00  -4.6861912915601432e-10 -6.8913013999415178e-08 0.0000000000000000e+00  -5.1069537933069828e-10 -6.8130279372704656e-08 0.0000000000000000e+00  -4.9031769343941426e-10 -6.2932281475333169e-08 0.0000000000000000e+00  -1.7950716470134064e-10 -4.1423545472682387e-08 0.0000000000000000e+00  -1.3138474583882440e-09 -4.5819388802304359e-08 0.0000000000000000e+00  8.1737492843245705e-10 -4.7779413030339916e-08 0.0000000000000000e+00  -5.3941281624006081e-10 -6.7577116793249592e-08 0.0000000000000000e+00  -6.5376245733106125e-10 -6.2443967865375564e-08 0.0000000000000000e+00  -1.2396012433223854e-10 -6.6145309063897820e-08 0.0000000000000000e+00  -9.3117656705002910e-11 -6.6366161092559408e-08 0.0000000000000000e+00  7.2954528745364084e-10 -5.0500135951263768e-08 0.0000000000000000e+00  -1.7708682835902578e-09 -2.0735920458604094e-08 0.0000000000000000e+00  -7.4192358659979998e-10 -6.2808249117880972e-08 0.0000000000000000e+00  -2.2599558643129109e-10 -4.6159548968814870e-08 0.0000000000000000e+00  2.1389302275240925e-10 -5.7511093469224659e-08 0.0000000000000000e+00  1.9400125475929162e-09 -4.0690421705183828e-08 0.0000000000000000e+00  1.5648364061919889e-09 -5.1222646074117667e-08 0.0000000000000000e+00  3.8764694414696339e-09 -3.3634298696299812e-08 0.0000000000000000e+00  2.5679789804247482e-09 -4.5475675617799496e-08 0.0000000000000000e+00  4.8771275977727142e-09 -2.5044362352823701e-08 0.0000000000000000e+00  2.9419434307386479e-09 -3.7393963989595860e-08 0.0000000000000000e+00  4.5592387874894157e-09 -1.3952574443131608e-08 0.0000000000000000e+00  1.9258546404235892e-09 -2.7629023988184764e-08 0.0000000000000000e+00  2.7522681167782154e-09 8.6956841148749426e-10 0.0000000000000000e+00  1.1345473598529775e-09 -5.3928251866383516e-08 0.0000000000000000e+00  5.4524984797902203e-11 -6.3135272882798659e-08 0.0000000000000000e+00  -7.5965777491533316e-10 -5.6925335875961762e-08 0.0000000000000000e+00  -6.7380844630830378e-10 -6.0873094865444521e-08 0.0000000000000000e+00  -2.6926401100082002e-10 -1.2631685024089363e-08 0.0000000000000000e+00  -4.2160744928161506e-10 -4.2193135317523422e-08 0.0000000000000000e+00  -1.3123160957804900e-10 -4.7328881592911997e-08 0.0000000000000000e+00  -2.4176141530994201e-09 -3.9357476081371410e-08 0.0000000000000000e+00  -5.4016206008893463e-10 -6.7651630365367354e-08 0.0000000000000000e+00  4.8594327090651764e-10 -6.0357810869392701e-08 0.0000000000000000e+00  -5.6455507585797825e-10 -6.6956590209763226e-08 0.0000000000000000e+00  1.7072687234183923e-09 -1.9754825486854091e-08 0.0000000000000000e+00  5.9008800814912636e-11 -6.3125640745296015e-08 0.0000000000000000e+00  -6.8009288266958520e-10 -5.6732033979150184e-08 0.0000000000000000e+00  4.0859666877239692e-09 -1.7636579135315332e-08 0.0000000000000000e+00  4.9044819465285275e-09 1.2280491094859879e-08 0.0000000000000000e+00  -6.4763160407107863e-10 -2.3481425233552458e-08 0.0000000000000000e+00  -6.9419438024211362e-10 -6.0549080423523482e-08 0.0000000000000000e+00  -2.5173027659423554e-09 -4.7984972019645540e-08 0.0000000000000000e+00  -2.2079936436904436e-09 -3.9130438771532627e-08 0.0000000000000000e+00  -4.5656145774349924e-09 -2.8087584530186337e-08 0.0000000000000000e+00  -3.5192584262078037e-09 -1.3432879727823790e-08 0.0000000000000000e+00  -5.5315385218662801e-09 -2.7307416569206212e-09 0.0000000000000000e+00  -3.5356214839140787e-09 1.5117969268577991e-08 0.0000000000000000e+00  -4.7830624037740833e-09 2.2076681190088871e-08 0.0000000000000000e+00  -2.4762521297594834e-09 3.8190546461627717e-08 0.0000000000000000e+00  -6.0862162755192624e-09 5.1715485321523383e-09 0.0000000000000000e+00  2.5124087605917744e-09 2.9153950756123685e-08 0.0000000000000000e+00  3.6608593901383125e-09 3.5057949821462276e-08 0.0000000000000000e+00  -2.8230004794517694e-09 4.1580962983063773e-08 0.0000000000000000e+00  -6.8704883476360471e-10 5.3765284866345560e-08 0.0000000000000000e+00  -6.6117233123249988e-10 5.5035918710065004e-08 0.0000000000000000e+00  5.2737183353269907e-10 6.3483768412269630e-08 0.0000000000000000e+00  5.9782914856961791e-10 6.3876929522326259e-08 0.0000000000000000e+00  7.0693204221661176e-10 6.2245294997368769e-08 0.0000000000000000e+00  -3.0879021596856610e-10 5.5627008836890689e-08 0.0000000000000000e+00  7.3608705555796776e-10 6.7320750651507717e-08 0.0000000000000000e+00  8.1641590647734345e-10 6.4375851848505986e-08 0.0000000000000000e+00  6.4397157500669529e-10 6.6892782304300575e-08 0.0000000000000000e+00  5.4458410960677487e-11 6.7475054665858712e-08 0.0000000000000000e+00  4.6686801550786419e-10 5.4973136581921457e-08 0.0000000000000000e+00  -1.4362024446881458e-09 1.8150995247808611e-08 0.0000000000000000e+00  1.5064604833263960e-09 4.9029775664493708e-08 0.0000000000000000e+00  -1.9337883824067150e-10 6.5099597872916489e-08 0.0000000000000000e+00  -1.3888943810913492e-11 6.1883835087794539e-08 0.0000000000000000e+00  6.3384961037512719e-10 6.7674356136784223e-08 0.0000000000000000e+00  -6.5626288007491265e-10 3.3190423073399641e-08 0.0000000000000000e+00  9.8506633600208868e-10 6.3458612034385363e-08 0.0000000000000000e+00  -1.2460267599476363e-09 -2.1581040557468540e-08 0.0000000000000000e+00  -1.0659781921527646e-10 6.5183675098477846e-08 0.0000000000000000e+00  4.8892491965536564e-10 6.1493340886391917e-08 0.0000000000000000e+00  1.4103042328521115e-09 4.8887113519873849e-08 0.0000000000000000e+00  -2.4297852375351064e-10 5.3418249374270189e-08 0.0000000000000000e+00  1.5149678223428795e-09 4.8332886990974004e-08 0.0000000000000000e+00  -1.6228120432476576e-09 4.1624373457307721e-08 0.0000000000000000e+00  5.4662853365834488e-09 2.0034181829606148e-08 0.0000000000000000e+00  6.3408901416820412e-10 5.5810654089340898e-08 0.0000000000000000e+00  -4.2143670105836572e-11 6.5726491469490110e-08 0.0000000000000000e+00  1.0919263003067612e-09 3.2984954559701252e-08 0.0000000000000000e+00  3.5189446949592835e-09 2.8722113275086718e-08 0.0000000000000000e+00  -1.0578300672796846e-09 3.4689379170729349e-08 0.0000000000000000e+00  -4.2810431336128342e-09 -3.9018613704054096e-08 0.0000000000000000e+00  2.0633071019353184e-09 5.0795583642143423e-08 0.0000000000000000e+00  3.3062260621631069e-10 6.1368767904280596e-08 0.0000000000000000e+00  -4.1099271262268491e-09 -1.5229628445710486e-08 0.0000000000000000e+00  -2.4476462809018398e-09 7.3035977046362005e-09 0.0000000000000000e+00  1.9945300105380529e-10 3.1121185665317473e-09 0.0000000000000000e+00  1.7298744658753530e-09 3.5157183812529342e-08 0.0000000000000000e+00  1.0469748911439479e-10 4.4356550912393940e-08 0.0000000000000000e+00  -1.0206700739303010e-09 -2.3760593849402396e-08 0.0000000000000000e+00  2.9883021257856243e-09 4.2901931059183228e-08 0.0000000000000000e+00  1.1134950949067210e-09 9.2694334500735647e-09 0.0000000000000000e+00  1.7706987977235284e-09 2.2666678891348371e-08 0.0000000000000000e+00  -4.9155077982365868e-09 1.0543391424884671e-08 0.0000000000000000e+00  -1.2722446233093133e-09 2.9371726220608618e-08 0.0000000000000000e+00  2.9941005123073097e-09 6.4459647300510827e-09 0.0000000000000000e+00  -8.8815796337835862e-10 5.1682293440288298e-08 0.0000000000000000e+00  -1.4042724894947801e-10 6.0735889939828718e-08 0.0000000000000000e+00  -1.0869807855378801e-10 6.6821367335927240e-08 0.0000000000000000e+00  -1.4674219727830199e-10 6.6540249354448589e-08 0.0000000000000000e+00  3.0788530035580994e-10 6.7963554497554825e-08 0.0000000000000000e+00  1.3021831819883379e-09 4.2850846229004491e-08 0.0000000000000000e+00  6.9008220377801896e-10 5.4116874032708859e-08 0.0000000000000000e+00  5.0526308547916286e-09 7.1134831197629842e-09 0.0000000000000000e+00  -1.8016649670602975e-09 4.2474367771794668e-09 0.0000000000000000e+00  -4.4671540003351519e-09 -3.1745629142354067e-08 0.0000000000000000e+00  -5.9592809151888414e-10 -6.7012280566041534e-08 0.0000000000000000e+00  -1.8705145365859418e-09 -6.3840948038319596e-09 0.0000000000000000e+00  5.5255998965627759e-09 -1.2630732975410461e-08 0.0000000000000000e+00  -2.5735779360252693e-10 3.1546006599125242e-08 0.0000000000000000e+00  -9.6889894323759672e-11 -6.7108547952051169e-08 0.0000000000000000e+00  -2.4403828739216368e-09 -4.8958573034068844e-08 0.0000000000000000e+00  -1.7335099078019621e-09 -5.4762605867187681e-08 0.0000000000000000e+00  1.0592082754795772e-09 5.6798327213372118e-08 0.0000000000000000e+00  -4.5997714436897747e-09 2.7026109941413631e-08 0.0000000000000000e+00  -2.4427334296907090e-09 4.3044414058466149e-08 0.0000000000000000e+00  1.5216678492646949e-12 5.8888662209929011e-09 0.0000000000000000e+00  -8.3864018725843273e-10 3.1804893822917153e-08 0.0000000000000000e+00  -5.7507018934490323e-10 5.5732234663721995e-08 0.0000000000000000e+00  -5.8877049236480959e-09 -1.7834507815984401e-08 0.0000000000000000e+00  5.8899529120911530e-09 -2.0842855692100094e-09 0.0000000000000000e+00  7.9251709492924468e-10 -4.7617764076537640e-08 0.0000000000000000e+00  -1.0251710647356892e-10 -6.7013856448892536e-08 0.0000000000000000e+00  -1.2270508750523718e-09 -4.9911017522701125e-08 0.0000000000000000e+00  6.7924996363117910e-10 6.0583407076984801e-08 0.0000000000000000e+00  7.9109274111711963e-10 1.8896927280496685e-08 0.0000000000000000e+00  -9.2549591521192089e-11 -4.8642244458362659e-08 0.0000000000000000e+00  5.2636102914545012e-10 6.7508551438009232e-08 0.0000000000000000e+00  1.8057206708228225e-09 -2.1655344345582360e-08 0.0000000000000000e+00  7.7080534742308694e-10 -2.8299331142610765e-08 0.0000000000000000e+00  -5.7409157369676830e-09 -1.0720386187744676e-08 0.0000000000000000e+00  -4.2255729872926111e-10 5.1644750698708502e-08 0.0000000000000000e+00  1.6678403419879914e-10 -6.1850145136109060e-08 0.0000000000000000e+00  1.8245953022343100e-09 2.3789670435106271e-09 0.0000000000000000e+00  -6.4807962534633306e-11 -6.0248659026608064e-08 0.0000000000000000e+00  8.1133452885817885e-10 6.6780120902164580e-08 0.0000000000000000e+00  3.6819826433079192e-09 3.9097510051649237e-08 0.0000000000000000e+00  4.9085796260030507e-09 2.5113410560388580e-08 0.0000000000000000e+00  -4.4018938691860186e-10 -6.3219377309219445e-08 0.0000000000000000e+00  1.1659868330663120e-09 2.6721408239744211e-08 0.0000000000000000e+00  8.2675637272502318e-10 -3.2580851439300398e-08 0.0000000000000000e+00  7.9735368946640279e-10 4.3963990920521221e-08 0.0000000000000000e+00  -3.5278267749559344e-09 3.0724344489011670e-08 0.0000000000000000e+00  -3.3088159379309463e-12 -6.2800751017744378e-08 0.0000000000000000e+00  5.9151940011909210e-09 5.4715494925991857e-09 0.0000000000000000e+00  1.1594250256517406e-09 6.1940541894235606e-08 0.0000000000000000e+00  1.4664447971597989e-09 5.0632545244654956e-08 0.0000000000000000e+00  -2.5553537865509637e-09 2.5992283538411129e-08 0.0000000000000000e+00  2.0720928016932785e-09 5.1542030519775391e-08 0.0000000000000000e+00  1.1395244748747982e-11 3.4418905002657983e-10 0.0000000000000000e+00  -1.0934559625519337e-09 3.7979688677120507e-08 0.0000000000000000e+00  3.5687129808783949e-10 -5.6266790384539362e-08 0.0000000000000000e+00  1.6423935100033729e-09 2.4676250506686631e-08 0.0000000000000000e+00  -1.4416074172377770e-09 -4.3752285725894525e-08 0.0000000000000000e+00  5.9164604991802051e-10 3.2985886345210208e-08 0.0000000000000000e+00  7.0118818042963616e-10 5.7321057638755046e-08 0.0000000000000000e+00  1.2897004711578798e-09 -1.1526877878032128e-08 0.0000000000000000e+00  -1.3476911232566272e-09 -4.2682995424045599e-08 0.0000000000000000e+00  -2.4701086088976067e-10 3.5871186368811986e-08 0.0000000000000000e+00  1.3415133474661012e-09 -3.1823710516003870e-08 0.0000000000000000e+00  -1.5577931079605666e-09 1.2147324603568140e-08 0.0000000000000000e+00  -5.1501732319448136e-10 -1.0023628577608917e-08 0.0000000000000000e+00  1.0613988258713549e-09 -2.7587023074214676e-08 0.0000000000000000e+00  -1.3557046124932663e-09 9.9705028577696313e-09 0.0000000000000000e+00  -6.0737759451097595e-10 -2.5331534513800572e-08 0.0000000000000000e+00  1.3521254891561665e-09 3.9177696089270501e-08 0.0000000000000000e+00  -6.5020672123064503e-10 5.5987887738840772e-08 0.0000000000000000e+00  -2.9331263568695121e-10 -5.8508892239552845e-08 0.0000000000000000e+00  1.8592133853841426e-09 1.0137119300600282e-08 0.0000000000000000e+00  -2.2462879238444571e-10 -1.0800333538923301e-08 0.0000000000000000e+00  6.3573795126707070e-10 -4.8021346001194589e-08 0.0000000000000000e+00  -8.1270946311696244e-11 -4.4064738101843662e-08 0.0000000000000000e+00  1.3983297535160910e-09 5.4770855835842303e-08 0.0000000000000000e+00  -8.2639842605088993e-10 -6.1126309376996627e-08 0.0000000000000000e+00  1.7007254958090847e-09 1.5993786499130948e-08 0.0000000000000000e+00  -5.1441979961255698e-10 6.0258537311999383e-08 0.0000000000000000e+00  -2.8892067053880866e-10 -6.2002382149923334e-08 0.0000000000000000e+00  -5.3064269434059741e-10 -4.3545040142710808e-08 0.0000000000000000e+00  1.2236920198131474e-09 5.8643515155118586e-08 0.0000000000000000e+00  -1.5562243355782857e-09 -1.7908008539378173e-08 0.0000000000000000e+00  4.2412788371718173e-10 2.1256316926179567e-08 0.0000000000000000e+00  8.3525126468868503e-10 2.0025330295351708e-08 0.0000000000000000e+00  -2.9121408211310360e-10 -2.4890965741748032e-08 0.0000000000000000e+00  7.1236689326943819e-10 4.8772768031104203e-08 0.0000000000000000e+00  -4.4693698992043995e-10 -2.1832236706070478e-08 0.0000000000000000e+00  -7.4437516354028682e-10 1.5090573753453391e-08 0.0000000000000000e+00  -1.2102596119004185e-09 4.1016691062098712e-08 0.0000000000000000e+00  2.8126808878819769e-10 -5.7355420838081577e-08 0.0000000000000000e+00  1.8175113446166683e-09 -9.1335141203192913e-09 0.0000000000000000e+00  1.1194383467995719e-09 -2.9401128178817020e-08 0.0000000000000000e+00  </DataArray> 
</PointData> 
</Piece>
</UnstructuredGrid>
</VTKFile>