<?xml version="1.0"?>
<VTKFile type="UnstructuredGrid"  version="0.1"  >
<UnstructuredGrid>
<Piece  NumberOfPoints="201" NumberOfCells="657">
<Points>
<DataArray  type="Float64"  NumberOfComponents="3"  format="ascii">-0.04271561671192947 -0.01837068114275377 1232.008085897089  -0.02154027524980703 -0.002539841159905196 -1232.048392217985  2324.417288038474 0.01127703931630774 -1172.312534672421  4420.030775671567 0.001987719328943701 -998.3828272310201  6081.381901931619 -0.001846858562889683 -726.568080025158  7147.024025332806 -0.005294714067538518 -382.3785394169129  7514.043154473476 -0.02459800177160052 0.009910571498101751  7147.034296230192 -0.03215632890093301 382.368713377388  6081.380007995586 -0.01279371176866792 726.5396754291148  4420.016718681167 -0.004059422957689583 998.3940683349457  2324.421299231417 0.02416594007644608 1172.263660716262  2944.3051054624 -2187.212929625292 -1072.444249958835  2925.309457888892 1699.016891503457 1098.830500995233  7152.420540059321 -1945.548240140412 -183.502275041838  5152.198017849944 -2123.899878303904 823.7680366283287  6506.635259384812 1968.087349321921 520.1558287400691  6479.646382426115 1968.025763670011 -529.1981022144058  3287.580122020601 1957.682088842542 -1058.427980031595  1133.046084563447 -1958.035987559382 1172.290936055859  5118.898722822696 -1957.104338923818 -841.0967126701654  3563.272305210669 -3840.054233576194 -869.0619071359322  5292.829166748364 -3762.796796417265 -599.2910393020841  3629.086937870824 -5378.738291867887 -575.6665191451998  5112.445832197926 -5046.996518677937 -283.7055762303972  3207.861907111363 -6402.52726579397 -240.9863460632003  4567.432251735979 -5745.645396818454 60.97288531761075  2399.090544254897 -6840.224825078254 109.9776171143972  3480.307270868734 -5943.216262099856 417.1190502746966  1253.722594863074 -6659.963693126875 443.4863758465607  2227.856770721151 -5433.769497078026 732.0508905533402  -86.57275537100128 -5836.792840175928 733.4430503529553  5337.215823251177 -4668.713084767824 352.0391730644139  5118.945185257967 1957.08183220803 841.0950936157889  5185.412319718119 3787.672834027347 619.8104529656617  6278.224844062927 3628.757245471278 280.7662757869216  833.6296671203088 -4338.252320774835 979.6536214418294  3052.59061977732 -3803.955954429151 924.0508276244473  3563.02724971222 3621.150754877759 895.8247123749118  3432.197665699323 5295.858903137134 628.2265784074364  7166.137049396816 -1898.147031860983 183.4818194080322  6318.139251503892 -3922.368967315695 21.25266534715428  6521.077475773442 -1969.837876496227 -515.030048663894  1133.039561519877 1958.048087989005 -1172.243564492521  5068.046262672952 1908.051651151059 -852.5819943351531  5145.745506431196 3767.32519760477 -632.2140464766795  1556.955215221122 -6461.482636484009 -499.4240143008358  -1089.297965017302 -6739.049119228386 419.8758572929978  1520.460094507035 -3939.362883859641 -1005.732541488263  6235.362875718863 3672.087955351793 -290.1539595424812  4662.910076549795 5304.900145082388 -349.2093327883116  3311.740322663956 5164.137676113714 -675.7526942215781  2614.006851248854 6429.919300735976 -376.4287102435299  1155.094201168617 6038.958590147486 -657.605496966753  338.0132432192367 6961.035261657324 -341.6038499858985  -1184.083272971558 6213.190532262548 -607.1126302774087  -1953.388560390511 6836.2797669313 -257.6778523877917  -3442.978778701547 5839.117162343886 -465.5916535013887  -375.7398060799135 7239.588535453838 22.83120808733488  -2400.674708458932 -5610.738075293657 676.4497848434237  -3315.134877456825 -6203.286186742496 335.2229756465511  -4041.922960092458 6067.185277908859 -125.9002301530493  -5339.48369468483 4746.241216925861 -319.4101251087376  -5687.162511172609 4735.345000520697 28.58855556907874  -6671.53545722098 3124.338886286334 -199.6957961660914  -6762.928308039145 2965.604931091266 186.2968669137791  -5928.037426227386 2961.901907151365 -568.1841282175716  -5469.648762809161 4382.35287331681 400.8735882067393  -7058.40858440288 1295.339101856128 -362.5671051800556  -6248.800609136653 2438.342276157221 547.0840575986585  -6010.046551442084 831.8073708414 -728.7567868943452  -6747.499152614566 -940.8462251443431 -520.5358713303867  -4649.579618708085 3676.187992199817 742.0542412814597  -1038.893846816274 -3006.435459051887 1109.244671638161  -4528.153223097622 -4797.89064809028 552.0402477280252  -5401.312366417001 -1274.843724775855 -831.409354552945  -5833.894038066955 -2991.490712334491 -589.6487169191585  -7220.234220562756 822.0909841324825 312.9262632646969  -2513.211746664037 4837.34687486001 -822.6892788025103  -5143.438351213455 1570.00435035453 860.3514492680069  1616.9286635864 4888.226883071196 872.9707084711962  -6956.477796396586 -2450.098602831381 -209.8064741154071  -4377.136101443793 509.3051734502376 -999.7586527525533  -3410.150443701179 2798.10465378911 991.6199555060645  -4205.306613243782 -3219.042810021194 -864.7861514964898  -4402.009927324742 -4791.549769709681 -580.517670574635  -3709.799433807338 5395.620772807634 556.8458383267564  -1893.790708660014 -7000.422862140296 79.6479370442464  -3591.936883605992 471.1726834350046 1080.668779742815  -5305.687661483728 -680.4989350942831 867.4049298017848  -2541.525499981786 -4806.423080691967 -825.5472417693804  -2549.152757196809 -6125.673529537708 -511.9623075835971  -2190.81271826236 -3044.586299561945 -1060.506361462413  3809.83501750388 6245.524752203645 -34.91855391003918  -5123.735242522461 -5145.370824175591 219.3896102838087  -6169.792186567896 -3475.196334353184 383.8278741265207  1345.94434341434 6291.677408043593 573.584998379982  -486.0228707808942 5675.44726470924 765.1715467408075  -168.4213815573137 4277.722384229568 996.3813589138553  -2037.5601700778 1807.79799688619 1146.354015758724  -3396.53010084979 -3925.00187270311 876.0304836344799  1772.806988990235 4779.012842015817 -882.2284089684213  -4211.859064129385 -5792.213983199024 -270.0855449649937  -556.8875461993563 3667.095761863638 -1060.45535229324  -1234.333714593366 1572.634907335842 -1186.091304756063  -836.2433496882304 6772.696290853274 419.7925065428668  -1589.273846571381 -1113.191303624414 1189.645998282434  -543.183161953 -5942.827186430685 -702.8138307237841  -3433.086850288343 -1788.435359868929 1054.68316131284  -5290.258095929318 -2878.06898003393 728.3036070381632  -6584.826589490858 -1383.108482857455 547.5888363518151  -7203.302349463906 -1795.230949549748 173.6963685082498  -7481.676883446379 -233.4788851011543 -107.5446967118348  -2888.191511695901 3115.469307361366 -1008.667082842686  -4379.259759120632 3445.215246895006 -814.9095020940614  -639.1367791512289 -6824.181125629065 -404.6615660758887  -255.7577859016333 5358.958543126002 -831.4057002623966  2996.524993610849 6373.897494817909 323.0125801775436  6477.543662054099 -1882.803581229365 538.8010535634911  375.7910155424886 -2054.90253435956 -1180.421472812472  1187.744336056668 -7071.417794496963 -190.5454498747912  -2289.405226715038 4633.244309402089 872.6614125280547  7182.985932934421 1824.100431737592 -187.4152601487161  4801.107547228228 5256.646333059784 318.2765739664728  5663.40647564708 4763.928757839643 -14.14550299194959  -5737.239630069072 -4308.893209459246 -312.8422954818579  -2489.600498635373 6817.194773628923 96.30816567138569  -4176.902142222913 5879.269774238847 226.3254856721779  -407.815121433652 -4435.114184030465 -974.4132043519542  -1752.860323981675 -809.7505285985046 -1190.606934821372  -3694.424248175545 -1299.291205989386 -1051.600085752433  1735.867519057714 7044.107395440027 -63.22203723292374  203.3604321566731 -7202.491132149171 137.4831047262371  4150.547303504173 -4581.879358661529 672.4965880601338  7195.648013581282 1847.443113172757 166.3377485767759  3289.403139385965 -1943.572250211381 1059.048832112516  -6355.363831380509 -3863.804679084073 30.56342286267896  -1345.808861470435 -4785.744018521768 901.2322371361203  3663.236973179538 3510.641766394691 -897.6263628006037  -6439.74775117947 578.0415490474858 629.9915776138946  1687.558086121277 -5400.628180330328 -776.7376366400197  1842.029642986856 3483.869278001401 1039.154084117541  1070.440197713907 7012.774102948112 259.9630545349038  -4674.478614319052 4545.758312057127 -580.3703154289817  6284.521378753566 -3494.604926694049 -323.3885303436487  -115.1292151957817 1887.376820366387 1189.774829757183  5693.06523104785 -3401.678020859666 561.5670717020815  -7295.502815367137 1727.847431804225 -28.16308201868961  -3883.897703590808 -6206.038246504048 11.91206822708627  -2371.952900200758 -6773.817922854766 -205.039016060001  6741.029455916226 3202.574478381023 -8.624013791029741  -1678.538374959098 3574.250997614471 1037.759047704771  2088.769383321099 3245.865077525968 -1048.81613568182  -2535.849744523105 533.0920220811569 -1157.046873252974  -2747.56727689372 6343.642344757833 392.9658609563222  6391.594939751545 -3250.282590831793 340.2896461538573  -511.9054419914718 -7196.519920988002 -124.2292468792739  -4821.817626608447 1885.702210924778 -891.4887964296381  -3296.271308956867 1602.926391303604 -1074.733522612512  -2101.85946021584 5833.939071413844 647.9099157304606  -5283.599375586396 -5139.049366687899 -69.21901606761597  0.002006044107613666 0.008249117282414242 -0.004094052465273613  -2398.294199636982 -2839.061978113441 34.14893887197661  3626.511241137486 1107.182362693197 -5.640002217442659  -1444.817697399699 2984.256594375954 271.6739633975788  2703.252700426016 -2115.50029578366 247.1608469365226  -1761.521200064978 309.7095694320674 -548.6992113350693  -3729.92451438926 563.4912284559235 0.4506491947320843  712.6479323608282 3375.535933021963 -235.9264698583615  2519.491615134466 -1663.50865823905 -369.3588713966755  -1959.99643590316 -316.1073464605542 532.2463987854989  1879.258607630759 2511.723623924611 429.3820179558453  -693.9455057507074 -2866.42856009013 -466.3785200524561  620.5926601237995 -4139.180747043068 2.277179963857677  1496.456267511903 109
[...]
<PointData  Vectors="Forcing"> 
<DataArray  type="Float64"  Name="Forcing"  NumberOfComponents="3" format="ascii">-7.5474824606801273e-06 -2.3236034219755906e-06 -4.0083155305353465e-04  -4.9276700827899090e-06 -9.0640022063428820e-07 3.9936502722799850e-04  3.8857812240796666e-05 1.1170992073659024e-06 3.7483201965961488e-04  6.8546645367161734e-05 3.0630805057911481e-06 3.3903057570359193e-04  1.0405637688710039e-04 4.7717590284193469e-08 1.8197087978797614e-04  1.1710602045753115e-04 4.5084452838681155e-06 1.1633950226761999e-04  1.1781038660405255e-04 -1.7001254417283724e-06 2.4660894997081757e-05  1.0967113246038157e-04 -3.7976256077472462e-06 -1.0224588102913015e-04  1.0335108322650572e-04 7.3074626781375605e-07 -1.9605240612953113e-04  6.7916750480559552e-05 1.2647246097012935e-06 -3.3132797645451395e-04  3.6018156677945899e-05 5.9690459975246325e-06 -3.6188603793154041e-04  5.1956438625255890e-05 -3.5516566989204837e-05 2.6642943712136720e-04  4.5741806971845325e-05 2.4092946598441530e-05 -3.5347396078874710e-04  1.0455320039809234e-04 -2.6095125989070712e-05 4.9802695691417501e-05  8.3650921490821488e-05 -3.1855315513007559e-05 -2.8111026040321320e-04  1.0994646572850781e-04 3.1163233140990264e-05 -1.6656303410805763e-04  1.0775511959820012e-04 2.9619347235325178e-05 1.7763000517041154e-04  5.5306723215640378e-05 3.1403718042415888e-05 3.2021256493983802e-04  1.8917780793387426e-05 -3.2206969479854370e-05 -3.0941722390097668e-04  7.9057034844125183e-05 -2.4724978666060798e-05 2.8719538519097435e-04  5.5770699900652283e-05 -5.5599798178000861e-05 2.8157561808996810e-04  7.9330338211567843e-05 -4.8642355997854764e-05 1.9642729524201863e-04  5.7631777920780186e-05 -7.8894241939060671e-05 1.5630610873511560e-04  7.7137904450830369e-05 -7.0500170208336540e-05 7.3392748265128574e-05  5.3295134724114979e-05 -9.8915868696600992e-05 7.3911531555077574e-05  6.7561494418909309e-05 -7.6721139329869920e-05 -4.0532263373353153e-05  3.3343373354994526e-05 -9.8832216736928187e-05 -4.2207657011627684e-05  6.4342828650896302e-05 -1.0279129498480844e-04 -9.7310121035562149e-05  2.1406279387717444e-05 -1.0152085492583114e-04 -1.4135317088641755e-04  3.7293014099957527e-05 -8.5550643955126669e-05 -1.8921105352251829e-04  -1.3515146960608519e-07 -8.3944487607680668e-05 -2.2453431282558594e-04  8.3018404087324566e-05 -6.2493082587554294e-05 -1.1833097511245065e-04  7.2155890400352126e-05 2.4324228564662070e-05 -3.0254600119181368e-04  8.1717342216478276e-05 5.3105698173805032e-05 -1.8511349486728638e-04  1.0619512860071833e-04 6.0297674412231731e-05 -1.0243147692385884e-04  1.4815739422012963e-05 -6.4463760988127232e-05 -3.3137990983230420e-04  4.7852104308546740e-05 -5.4649145619497212e-05 -3.1748940467819380e-04  4.9008150994219070e-05 4.7913982474992217e-05 -3.0095001776392252e-04  4.8924206526715591e-05 7.5163452119807709e-05 -1.8375437716076131e-04  9.9098695508463138e-05 -2.9303370713705410e-05 -7.0727621631722730e-05  9.3150107143183161e-05 -5.3098682880814618e-05 -1.5145039591514313e-05  1.0079018602816385e-04 -3.0675814248016743e-05 1.8616618788110697e-04  2.0606525018797889e-05 2.5616429724951488e-05 4.0349126882973708e-04  7.5719211895594385e-05 2.6900648011619878e-05 2.9378419043974980e-04  8.0655654443137614e-05 5.4797406129451755e-05 1.9200905096952101e-04  2.4801347304800084e-05 -1.0857041376193250e-04 1.4306579855157393e-04  -1.9174139054659219e-05 -9.0013318180415589e-05 -1.5882430493127086e-04  2.4011215222677355e-05 -6.0591188687519774e-05 3.0128898338233978e-04  9.5872574119870791e-05 5.4791461005379342e-05 1.0693840971952480e-04  6.7543409814936964e-05 7.8126808099949997e-05 1.1129772554703699e-04  5.1186248954697698e-05 7.2092669038994372e-05 2.1156685167808556e-04  3.3426738459375316e-05 9.3146206042877766e-05 1.2441245646149161e-04  1.9012084396505894e-05 8.2972538530755937e-05 2.4116230085576801e-04  5.0615077603608470e-06 1.0166862246732754e-04 1.2138592313001522e-04  -1.6734991278702507e-05 8.7241221394496364e-05 1.8705478675864562e-04  -3.0527774591585488e-05 9.9842432602736156e-05 6.7789748995376582e-05  -5.6065412061227925e-05 8.2742972994551006e-05 1.5391101232426792e-04  -5.4904228184447198e-06 1.1033385490299551e-04 -1.6856236609199501e-05  -3.6332951105629351e-05 -8.1054877298941406e-05 -2.0680553709785573e-04  -6.0402845519298356e-05 -1.0158362753741550e-04 -8.9277938154134259e-05  -6.1177944118256231e-05 8.6492866941586605e-05 4.0219900851108271e-05  -8.0279743105533442e-05 6.7973220560089636e-05 1.0754099319604754e-04  -9.7527242407835182e-05 7.7663472484792778e-05 -2.2499783383046745e-05  -9.8424109220111299e-05 3.9646577572729640e-05 6.1306703218465107e-05  -1.0720624931521634e-04 4.4356157974461007e-05 -6.8831475283572649e-05  -1.0263223145823949e-04 5.2573614643816779e-05 1.4879092529178372e-04  -8.0692624629571962e-05 6.7913680966861443e-05 -1.3285053533813925e-04  -1.1606279724364912e-04 2.2375029004099004e-05 1.1157697190228355e-04  -1.1018047386778187e-04 4.2298004556135851e-05 -1.4294731448902129e-04  -9.0864087732358870e-05 1.5908668016234811e-05 2.1307808088293344e-04  -1.0533496909807087e-04 -1.5301623172739585e-05 1.4917779934035198e-04  -6.4560329484138247e-05 4.5593135906368342e-05 -2.6574036723334317e-04  -1.2331121562389540e-05 -4.2327846868432886e-05 -3.5572869942239753e-04  -7.1459217792488750e-05 -6.7308156974281460e-05 -1.7952436466283104e-04  -7.5427009127600214e-05 -1.5623582115570715e-05 2.9564759900187903e-04  -9.0973121150642088e-05 -4.5686590829476309e-05 2.0701139961450872e-04  -1.0610849449042538e-04 1.6403916547552310e-05 -1.0058266323675090e-04  -4.1264372201718248e-05 7.8736449305573568e-05 2.1208994216560050e-04  -8.0775744256143299e-05 2.0982183827447567e-05 -2.3886998441450508e-04  2.4171997699766986e-05 7.3572794767482979e-05 -2.7425247431395557e-04  -1.0287122680505169e-04 -3.4208276765760539e-05 5.9545381739086020e-05  -6.4143231140930301e-05 9.7584225063998518e-06 3.3165382882801973e-04  -5.1182847735168886e-05 4.4170746692153440e-05 -3.2098280019736647e-04  -7.6744899956175048e-05 -5.5340837528231089e-05 2.2547858403691070e-04  -7.2261574025038689e-05 -7.4534892481866190e-05 2.0509143154333312e-04  -5.0800187088822192e-05 7.6292343405156044e-05 -1.8348457316352389e-04  -2.7990729044050113e-05 -1.0824126740946309e-04 -3.2851850251220892e-05  -5.1668145793955617e-05 6.1853337806204118e-06 -3.6399996510595554e-04  -7.8298020231103632e-05 -1.1088842101151361e-05 -2.8742996610824567e-04  -4.2231737696246160e-05 -7.0542856571883047e-05 2.5664736940712521e-04  -3.8978449475658670e-05 -9.0217829320046752e-05 1.6092890450938703e-04  -3.6393485821193532e-05 -4.4825397749439720e-05 3.6298846142672426e-04  5.8434004296891676e-05 9.5689123741550330e-05 -1.5464859801585641e-05  -7.9623215473525178e-05 -7.7755143322866965e-05 -8.8509724183902477e-05  -1.0223280945457264e-04 -5.8615182415340483e-05 -1.1750056828376363e-04  1.8400492531663702e-05 9.2050606735148276e-05 -1.9942447367477049e-04  -9.5913367084359456e-06 8.0798875989954370e-05 -2.5828022988811348e-04  -3.3541830909519408e-06 7.2429173608248770e-05 -2.8029589769165664e-04  -3.1944779228614039e-05 2.6603528147246307e-05 -3.5883589171158576e-04  -5.2526190394268803e-05 -6.0291039259737648e-05 -2.8039160739372625e-04  2.6066533166909152e-05 7.0240677981628309e-05 3.0145492173392648e-04  -6.3690188584753426e-05 -8.8321335793282825e-05 1.1147416049462415e-04  -7.0642853220799457e-06 5.6030921159671060e-05 3.0127582034858772e-04  -1.7728276530130097e-05 1.5589305942641236e-05 4.1196029930008478e-04  -1.2135403725809618e-05 9.4094437015439567e-05 -1.3566777518083230e-04  -2.6005409327789761e-05 -2.2800300169675722e-05 -4.0757678092891039e-04  -7.5045447009365049e-06 -8.4384742142259658e-05 2.4000980617866512e-04  -5.4050364476316735e-05 -3.0770465487663889e-05 -3.0747765542514928e-04  -7.9945930688182074e-05 -4.6279832879337027e-05 -2.6538383235657988e-04  -1.0863706993506675e-04 -2.1286684467494757e-05 -1.4989245615192328e-04  -1.2903932529361966e-04 -2.8615077759363072e-05 -5.7976195850363327e-05  -1.1591740339259894e-04 -9.0305730856492546e-07 4.5790049014118854e-05  -4.4827862767106032e-05 4.7338173657814291e-05 3.2873929435658960e-04  -6.6189886925758015e-05 4.2756655144623585e-05 2.6216197054942713e-04  -1.2811013070584879e-05 -9.6682777818842680e-05 1.6157085890476763e-04  -1.7394374795378237e-06 8.9841854885287447e-05 2.2201944164244720e-04  4.4631416718752089e-05 8.9367821021193780e-05 -9.8283046781361846e-05  1.0071795507955099e-04 -2.9362531232190705e-05 -1.4295447333530873e-04  8.8405960804890081e-06 -3.1885996638401612e-05 3.5518218129819532e-04  1.9675502690741478e-05 -1.0095955855931130e-04 7.1816619032846608e-05  -3.2527873819520284e-05 7.1243219744227950e-05 -2.8882896303586772e-04  1.0489475067367111e-04 2.6676830163775711e-05 7.4737296489066750e-05  6.8332938158909047e-05 7.3304319744062988e-05 -1.0768189811339613e-04  8.7325863938225343e-05 6.6441519710191410e-05 -3.4379349491605690e-05  -8.4907790423859806e-05 -6.3430926234384744e-05 9.6015235858086569e-05  -3.1898937430916751e-05 9.0522140961658536e-05 -2.6496420803348335e-05  -6.3812111070839759e-05 9.3250650790875471e-05 -6.5582899494193319e-05  -4.1698095286410220e-06 -6.4568505407329996e-05 3.1806043853265913e-04  -2.9210170440391757e-05 -9.9410219586538929e-06 4.1558424257912555e-04  -6.4495192700204248e-05 -1.7483519800907339e-05 2.8153534371735484e-04  2.5217104961755625e-05 9.7437119386116345e-05 2.4888331712303611e-05  -2.1047472750518893e-06 -1.0653198925883853e-04 -5.2446561242023253e-05  6.0813339204121302e-05 -6.7213083028256913e-05 -2.1991807309415236e-04  1.0542187265047560e-04 2.5050665729240021e-05 -5.1242572373958500e-05  5.3220543426704849e-05 -3.0853046843885207e-05 -3.2204711264887547e-04  -9.3783130069906309e-05 -5.5725945470665977e-05 -7.2512349461734017e-06  -2.4900849060201872e-05 -7.9882911094701872e-05 -2.4966876203804403e-04  5.6104906115878249e-05 5.0153909768426947e-05 2.9566013755425027e-04  -9.4723656791954151e-05 1.0360830245086349e-05 -2.1565053903802243e-04  2.4606361935562085e-05 -7.9144933685359185e-05 2.4499116205205061e-04  3.0469350686473102e-05 5.4574917621323324e-05 -3.3440068164347571e-04  1.6690178780918839e-05 1.0601258248903943e-04 -8.5717089774845780e-05  -6.9715987634677484e-05 6.2487673959020414e-05 2.2981133615932871e-04  8.8359996410227899e-05 -4.4274637850308341e-05 8.4365743115262911e-05  -6.4881121201274663e-06 2.6806537002939644e-05 -3.7409356596952573e-04  8.7184784919373215e-05 -5.2305902456483418e-05 -1.9912992692959854e-04  -1.1332294744455616e-04 2.4983661044973220e-05 1.5700869958361790e-05  -6.0717959012932125e-05 -8.9183496177798558e-05 -6.0217567784262585e-06  -4.1728944463235753e-05 -1.1919782743676177e-04 6.4035981741650586e-05  1.0640388312716594e-04 4.5872696947973797e-05 -2.0715515622166553e-05  -2.7248390223892107e-05 6.3460592634984861e-05 -3.3000606099025461e-04  3.6578784204537205e-05 4.3462480499636009e-05 3.5157264857843670e-04  -2.9961414829328484e-05 1.4594420305819082e-05 3.9357936708141672e-04  -3.8925570075601157e-05 9.1302563843333379e-05 -1.0865133559311890e-04  8.8526335527048324e-05 -4.2024163073013781e-05 -1.1426521545357290e-04  -6.2214378889577491e-06 -1.1003172275234524e-04 1.2875835856628879e-05  -6.6885922764125142e-05 2.4774464960000962e-05 3.4467099483857523e-04  -5.0674802533379273e-05 2.5587073797511112e-05 3.6956325528870977e-04  -2.8180669816672086e-05 7.9966033721026662e-05 -2.0649400705339456e-04  -7.7215111109508514e-05 -7.0267090184204271e-05 1.0286850306199193e-05  1.8061545157922672e-06 8.1888615960818391e-06 -1.3382221393249719e-05  -2.9240120019581805e-05 -3.6165972456839464e-05 -2.6457898361402647e-05  4.0158562966381734e-05 1.5494348222391380e-05 -1.1912064737126113e-05  -1.3555875523250930e-05 3.4390295320788787e-05 -1.4315041990170760e-04  3.2650273186947674e-05 -2.5054626531082736e-05 -1.0995696628010785e-04  -2.5745510904952908e-05 7.1164757758859038e-07 2.4898749322573862e-04  -4.8220441291186856e-05 5.9386229543805044e-06 -1.3967477859298108e-05  8.0005332052825710e-06 3.5899827737991237e-05 1.4045760875895400e-04  3.0796260280952046e-05 -1.7932194948827413e-05 1.4074065168957875e-04  -2.4751467892969870e-05 -5.3215776185928078e-07 -2.3504268542235915e-04  2.0691836103286014e-05 2.5956223768686930e-05 -2.3726163632608745e-04  -7.5874898197496252e-06 -3.8764560821133609e-05 1.7152708470047139e-04  8.2505823555251823e-06 -5.7975148378212596e-05 1.0462142869897493e-05  1.7196772587690711e-05 9.9942205498858252e-06 3.1377784011866599e-04  -6.3196512852614156e-06 -4.5509351594524973e-05 -1.9807862793261291e-04  1.9122484847523391e-05 1.4289523887760654e-06 -3.0242661539899772e-04  -3.4648223667412070e-05 4.1989209468903859e-05 9.2992586476184735e-05  -4.7683189067711998e-05 -1.5480539407643644e-05 1.0916307941447346e-04  5.1288611663848275e-05 3.9201144397553547e-06 -1.9917125894807614e-04  -6.9125862578801648e-06 2.1864204366896733e-05 -3.1410157914323658e-04  8.2106624693520423e-06 4.8706728443707065e-05 -1.1654368105135499e-04  3.9706485855707922e-05 2.7295585857026278e-05 1.8861032534286883e-04  4.4250761757711358e-05 4.2855962794182984e-05 -1.1776287652580596e-06  -4.5419931537635610e-05 2.1249856094104806e-05 -2.1682913155515068e-04  5.0643804623713845e-05 -1.4088649614828812e-05 2.2301282732733712e-05  -1.3732934172764123e-05 3.2286868472429018e-05 2.7685254332474371e-04  -5.4087171432027684e-05 -1.7354292233946518e-05 -1.3094486057891799e-04  5.6069248486506411e-05 9.9233069932651393e-07 1.7589229127863145e-04  3.6099436837559623e-05 -3.8607005011910861e-05 3.8378839392638117e-05  -5.1230455135490395e-05 1.6481261877823931e-05 1.8705175851027009e-04  1.1378228779299243e-05 -1.8876551775691083e-05 2.8763037431648008e-04  -1.7639939376781919e-05 -5.4876278788776252e-05 1.1621916348218644e-04  -1.7624470462496759e-05 -5.6100590247227351e-05 -1.1307136276791930e-04  2.1770588665665702e-05 -5.0690299080309764e-05 -1.6032578060829324e-04  -4.6718756231282770e-05 4.2286473425473928e-05 -3.6217145881287460e-05  1.7706715033396499e-05 -5.0066831007814222e-05 2.0585029695944823e-04  -1.0362251523056753e-05 5.7873735367630633e-05 3.0352870062766409e-05  -3.1909206062084214e-05 -2.2973935514625200e-05 2.9869954678658620e-04  5.3095258640688381e-05 2.6237090323057139e-05 -1.4275728964038858e-04  5.1786605534995551e-06 2.9390540556728795e-05 -1.1576748213715104e-04  2.1014099025058338e-05 1.6889253327267553e-05 1.5063858999776972e-04  </DataArray> 
</PointData> 
</Piece>
</UnstructuredGrid>
</VTKFile>