<?xml version="1.0"?>
<VTKFile type="UnstructuredGrid"  version="0.1"  >
<UnstructuredGrid>
<Piece  NumberOfPoints="201" NumberOfCells="657">
<Points>
<DataArray  type="Float64"  NumberOfComponents="3"  format="ascii">-0.02107170501483866 0.004424264891268134 948.4386990549762  -0.005476907898779572 -0.003004882566024181 -948.4490309194932  1782.111567937222 0.005480077193662362 -902.2006270973887  3389.076595798549 0.003685455736431728 -767.8273662567149  4663.413285640003 -0.007839746348720448 -558.2354674756265  5481.029313603248 -0.006372184171693068 -293.6031416197488  5762.664609643046 -0.001291760710815264 0.004074641982261066  5481.036441279039 -0.002274463310756429 293.6043023486297  4663.413638606867 -0.005303127825794019 558.231573066893  3389.072217739716 0.007430810041584293 767.8323630755311  1782.118614041941 0.003525542875312153 902.1967687135727  2257.409966970265 -1670.823284466337 -824.8975187424395  2242.832643497803 1297.831888948997 845.3553049756465  5485.132740850049 -1488.081284660164 -140.8543006630534  3950.605556631162 -1623.358473383601 633.0424264148552  4989.630758829254 1504.9335556552 399.4228662936209  4968.915252956561 1504.922518148451 -406.3792366998713  2520.638186059315 1495.551398622933 -814.0916155862926  868.6787131302643 -1495.360557483541 902.106148974113  3925.0770372707 -1495.822812962464 -646.4151074745391  2732.016693645857 -2934.498827137698 -667.8142162010477  4058.433464620711 -2876.775401166415 -460.1814404919728  2782.438468996397 -4111.809214968322 -441.8599022741548  3920.037623884597 -3859.42392186596 -217.6808501574831  2459.414132143267 -4895.386443103085 -184.8436437612507  3502.007968962002 -4393.73885398375 46.77292761772431  1839.288292268645 -5230.01451380528 84.35290618476414  2668.336135283959 -4543.872445016415 320.0394625600418  961.1585755580805 -5091.258342156992 340.2336216958496  1708.026597607719 -4152.854596738802 562.1020224064865  -66.362038504374 -4460.677509813482 563.1273488265573  4092.446939973784 -3570.07090273037 270.1805270989133  3925.103809334895 1495.83169057627 646.417776823075  3976.024837953861 2895.723877512168 475.9440799075524  4814.334669644645 2775.204093829656 215.4999997006443  639.1124361338721 -3314.260410422137 753.0909744278372  2340.408215627472 -2906.5578898063 710.2508403586916  2731.824489696591 2767.131929201824 688.4522210762207  2631.45222450139 4048.188518945645 482.2906599241352  5495.651682780609 -1451.817361905081 140.838939771387  4844.945927131676 -2999.889439521401 16.31083085594285  5000.70251048234 -1506.284083966669 -395.493170260107  868.6698743310394 1495.369536292519 -902.1046956165653  3886.069984943214 1458.282306035772 -655.2588905777898  3945.617459037843 2880.134115394548 -485.4879941655708  1193.636728891226 -4939.348860396832 -383.1939904742405  -835.0770708300772 -5151.729938320691 322.0960850006779  1165.688697176715 -3009.467107779162 -773.2371507878555  4781.44896287692 2808.270837588301 -222.6967906760964  3575.243600829859 4056.367105572207 -267.9514297417047  2539.089957118212 3947.29383269177 -518.8385646169396  2004.074596992553 4915.86010413377 -288.7811456069198  885.5458697355555 4615.667592762153 -504.7792009670763  259.1396796461055 5321.722261585156 -262.0171845962125  -907.7592748716743 4749.044017367051 -465.9659625043614  -1497.551478278214 5226.719983187117 -197.6263195804882  -2639.690557251043 4464.07164137764 -357.2629030436756  -288.0446119188898 5535.181596881421 17.50282914364099  -1840.507482264206 -4288.402895527463 519.3398111775558  -2541.663468310111 -4742.827613990458 257.1755618898771  -3098.970530951342 4639.336596510439 -96.56266119008025  -4094.191343622281 3629.343372317176 -245.1131401470116  -4360.88684646682 3621.442995172106 21.93480604188744  -5116.104974402378 2389.592867461515 -153.2714137797214  -5186.240396328927 2268.218029241715 143.0031806412415  -4545.729273224286 2264.66457522766 -436.3132856456646  -4194.048889715069 3350.997405083792 307.6729263338974  -5413.033595980965 990.6275355165011 -278.363074770959  -4791.822451467054 1864.459468974045 420.1180832061776  -4608.707981518719 635.8419201943605 -559.9193257184069  -5174.514799289975 -719.4309166511739 -399.762429901957  -3565.066096074058 2809.964896240424 570.0082063407099  -796.48539996547 -2296.309863827454 853.3201345891576  -3471.919993775318 -3668.004459512657 423.7883876064742  -4141.743106713765 -974.4105138965776 -638.9918483200175  -4473.523852970051 -2287.206089197631 -452.8151292936592  -5537.223257151047 628.6978666791024 240.2454817019169  -1926.805481926559 3696.674596077234 -631.94772691812  -3943.922220817977 1199.918463129284 661.2625544519877  1239.631164086748 3735.159553335363 670.6775653439255  -5334.818081092238 -1873.942413261843 -161.0378638578376  -3356.199421405158 389.1449675844854 -768.8554069224779  -2614.616782910919 2137.783150689074 762.4555817838724  -3224.379900539809 -2460.038405641889 -664.5631153735269  -3375.179523094077 -3663.065272594826 -445.678427703417  -2844.309874954141 4124.722948827926 427.4171714930583  -1451.853449921862 -5352.416701536235 61.07280300735776  -2754.033364336085 359.958898058781 831.3736854769339  -4068.384671199824 -520.1215848016869 666.7402060799011  -1948.534158431936 -3673.018752521985 -634.1863041085479  -1954.335361106697 -4682.757819534589 -392.8516067376793  -1679.653876546433 -2325.702260702659 -815.6095460828943  2921.000535954179 4775.746476354409 -26.78019154861166  -3928.695944008762 -3934.631795258874 168.3363025566535  -4731.184480070473 -2657.538446396937 294.6323485679171  1031.865537889534 4809.228583500371 440.1860522534411  -372.5916782505734 4337.227803163853 587.5936284185947  -129.1110313930557 3267.986760906324 765.9244349673213  -1562.161567356793 1380.715807410036 882.0597800474142  -2604.156490500998 -2999.32572451027 673.1753105270781  1359.14418893046 3651.64937300183 -677.8463808243259  -3229.324895491027 -4428.864482105188 -207.2118719872074  -426.9430306007665 2801.161309624853 -815.5143464248475  -946.3243644585691 1201.018622735936 -912.8116300572519  -641.0840987212459 5177.47389119819 322.042677497691  -1218.462087960851 -850.0706717805355 915.6355750360185  -416.4159910159244 -4541.853069131816 -539.5625403064927  -2632.222921547764 -1366.270797454707 811.2038160015321  -4056.506021874327 -2200.011605687767 559.4989711746073  -5049.691012362307 -1057.61240988236 420.5285116730426  -5524.243043168764 -1373.117321090471 133.3251311809635  -5737.865089630027 -178.6032982321161 -82.55137518510433  -2214.363173300262 2380.172383159615 -775.5719201929255  -3357.761299523245 2633.119778644872 -626.1188118830194  -489.9667245233193 -5216.840248999475 -310.412117587439  -196.0701596417885 4095.031394397261 -638.5865263655613  2297.368797337611 4873.294790339634 247.7980919203111  4967.303211500048 -1439.735790906563 413.7844520074643  288.1179036983231 -1569.312556935617 -908.4298944901856  910.5698658257051 -5406.468750346484 -146.1188997258295  -1755.216517596067 3540.364822711716 670.5017252003914  5508.576388422169 1395.205619166135 -143.8588691341517  3681.237256087136 4019.576236278704 244.2093096235345  4342.647804619295 3643.368613898363 -10.85469580169325  -4399.319873764827 -3295.050109516549 -240.1063661444832  -1908.665879992631 5212.430407048129 73.86756514427681  -3202.497851788878 4495.573869419752 173.6303268429944  -312.655309005927 -3388.269859254072 -749.0015447446027  -1343.882532013713 -618.4154985831719 -916.3547701268523  -2832.625664279856 -992.6415713883545 -808.8791765531087  1330.796448954393 5385.794153069745 -48.47279856770049  155.9137180825799 -5506.7032963524 105.4252553615137  3182.350717670002 -3502.400253456673 516.408061065707  5518.293251996528 1413.053832855675 127.6816507087236  2522.036105208326 -1484.785828917728 814.5536567138562  -4873.519055846355 -2955.094827149027 23.45483451406025  -1031.766939137952 -3656.637304557514 692.4960898552147  2808.667370886208 2682.682636602935 -689.8719553493696  -4938.370898890616 441.933797533719 483.9267300279645  1293.784928555101 -4127.20440698334 -596.5043063095577  1412.226891068956 2661.352248683274 799.0764783768103  820.6457822197397 5361.530516604743 199.3870736536258  -3584.131596102885 3475.223153311674 -445.5779007949599  4819.170627046629 -2672.52993381895 -248.2287076544158  -88.26049689403095 1441.36541481589 915.7155381548206  4365.460264959817 -2600.825163693509 431.2169747686074  -5594.9448372611 1321.58540969244 -21.61501216114905  -2977.80970891028 -4745.457833816675 9.150539940194285  -1818.458523202815 -5179.109682274622 -157.2479980545668  5169.410902516964 2449.526057403288 -6.612130988638952  -1286.873782314899 2730.419528591781 797.9801290288424  1601.403579271962 2479.574185325082 -806.5378179564426  -1944.230455804177 407.1314002169393 -890.4134348885974  -2106.46056219336 4849.853198894108 301.4875365337853  4901.332087613151 -2485.666908857354 261.217809980889  -392.4253353785407 -5502.126282761977 -95.26364915881555  -3697.227338514363 1441.074156213956 -685.2761992014986  -2527.302913734235 1224.506392609112 -826.7015865891378  -1611.395928989889 4459.132280436338 497.3616432011268  -4051.320798764752 -3929.993456173927 -53.11573458004629  0.007523290694394777 -0.0009025341761685879 -0.001296580050170327  -1838.676691619736 -2168.53842814798 26.27208923750122  2780.43892681214 845.7372337732394 -4.335261998894175  -1107.647917141941 2279.276687497084 208.9856369681019  2072.497822756292 -1615.814407353221 190.1511184562344  -1350.46447325827 236.5039690104977 -422.3600624062921  -2859.74394317473 430.4582280874963 0.3459761623397477  546.3394079310906 2578.118934451747 -181.4606804194671  1931.60383965611 -1270.513671352675 -284.2001610121171  -1502.641026019646 -241.3970614449186 409.6589407426783  1440.734996160024 1918.3603240477 330.3345909924133  -532.0073404578226 -2189.148718715403 -358.8020807064206  475.7698356644791 -3161.785271884607 1.753141964572314  1147.2587077976
[...]
<PointData  Vectors="Velocity"> 
<DataArray  type="Float64"  Name="Velocity"  NumberOfComponents="3" format="ascii">-9.4798215988710223e-10 1.9917089239611950e-10 -7.0002146829986827e-08  -2.4790112794346838e-10 -1.3573157557048588e-10 6.9538574749146168e-08  2.3652621669460233e-07 2.4596757719261327e-10 5.8419364809900762e-08  4.1829534110263611e-07 1.6462212780937577e-10 3.3116977714523074e-08  5.1943199201578929e-07 -3.5232641011523835e-10 7.1962531488440176e-09  5.5927483008126651e-07 -2.8589690790346240e-10 -1.6571311175383408e-09  5.6869536083064123e-07 -5.7884042634497708e-11 1.8272075768697033e-10  5.5959399763530154e-07 -1.0228993693770103e-10 1.7096643551398309e-09  5.1944743770513807e-07 -2.3851464900677319e-10 -7.3704714008435932e-09  4.1809944729269925e-07 3.3291742291968003e-10 -3.2893453955311277e-08  2.3684166836837853e-07 1.5857056156177967e-10 -5.8591443415048067e-08  2.8329079805769928e-07 9.8770360972052521e-08 4.6396947482380322e-08  2.8718721053076870e-07 -7.7267761672436184e-08 -4.9357547330491274e-08  5.3897880593443672e-07 5.4782285499264184e-08 -1.0972885425725362e-09  4.4927372849625450e-07 8.0521144578790692e-08 -1.7668396025867579e-08  5.1777534368972185e-07 -6.2097488413450850e-08 -1.4286145926754622e-09  5.1693921132330434e-07 -6.1816797553764288e-08 1.9114144120073131e-09  3.1496773973445726e-07 -8.6695646229687513e-08 4.3528023194734630e-08  1.1421126933688198e-07 9.5270136239148644e-08 -6.2663507037734745e-08  4.4962755215438954e-07 7.4507203262587799e-08 1.8927804843310151e-08  3.0619365986784937e-07 1.6268073702140907e-07 2.9104513236772429e-08  4.1749741011429122e-07 1.3625560491474483e-07 9.5753129585946855e-09  2.6929702865563963e-07 2.1733349060462253e-07 1.5363285175246781e-08  3.6065335505045811e-07 1.8015857483833692e-07 3.9848039400020774e-09  2.1254386724789464e-07 2.5746774456899810e-07 6.0549683108005197e-09  3.0703234841087219e-07 2.1222626506218770e-07 -8.7537904522156737e-10  1.5232815963952132e-07 2.8307045599627133e-07 -3.1065810472535033e-09  2.4225561651556643e-07 2.3820035111700620e-07 -1.0411295687661372e-08  8.5023307679385587e-08 2.8875977291563491e-07 -1.5102196376064856e-08  1.7357443898522072e-07 2.3776542315517459e-07 -2.6693258985064866e-08  -6.4651056262936183e-09 2.6371069812802873e-07 -2.9361139234034805e-08  3.8721522059856702e-07 1.6434881739379764e-07 -4.4616085646634537e-09  4.5083004682256913e-07 -7.4109114952020572e-08 -1.8806896680983580e-08  4.1030557988941988e-07 -1.3860485023341605e-07 -1.0390631569346159e-08  4.6281843457450999e-07 -1.1500192786976642e-07 -9.6169531897028435e-10  7.3422963149372414e-08 2.0297132531898518e-07 -4.5990918818806049e-08  2.6998989836657770e-07 1.6695420575151590e-07 -3.5729250527906259e-08  3.1050623505941687e-07 -1.5381348604415823e-07 -3.0817718682192072e-08  2.5899309895582335e-07 -2.1780304014048311e-07 -1.8397120318110226e-08  5.4080741966439474e-07 5.3459960107909877e-08 1.2101818022129075e-09  4.5559330910599702e-07 1.2385164555028446e-07 1.8620037945262365e-10  5.1988098173869005e-07 6.1790481016273009e-08 1.7568991283295651e-09  1.1381056699667429e-07 -9.4866589985876434e-08 6.2728888435147304e-08  4.4799882665474812e-07 -7.3394459496189703e-08 1.9745210541492165e-08  4.0810629195666999e-07 -1.3818012370190016e-07 1.0940590485535290e-08  1.0781246337234970e-07 2.8001236883224353e-07 1.7095272776980691e-08  -7.4953996347271752e-08 2.9245494075105117e-07 -1.4257100320995113e-08  1.3845248698230908e-07 1.8337282717262949e-07 4.7056234777512304e-08  4.6016424034982947e-07 -1.1735446418995154e-07 1.2593324150089205e-09  3.2907540053716852e-07 -1.9653782451767793e-07 5.9702569840474677e-09  2.5575688919954254e-07 -2.1503365076752098e-07 2.0850535420115421e-08  1.7712154051029366e-07 -2.6734864671771291e-07 1.0967608884624672e-08  8.5841479264268679e-08 -2.6799675358450540e-07 2.4767260758619132e-08  2.0962543015198455e-08 -3.0199224837582679e-07 1.1494253341301414e-08  -8.6393794969229910e-08 -2.7413486987002271e-07 2.2614519458519217e-08  -1.2773370593363260e-07 -2.8775255155928189e-07 7.8106925162752410e-09  -2.4522861470186885e-07 -2.3535300407746743e-07 1.2044391753697241e-08  -2.4964253164527153e-08 -3.1093196987969013e-07 -5.5625449286003442e-10  -1.8287141682164573e-07 2.4168091433202787e-07 -2.3380757535284381e-08  -2.2509533540935939e-07 2.4874710067470469e-07 -8.4541738217246067e-09  -2.7069930649065504e-07 -2.3196798465175691e-07 2.4992364552694956e-09  -3.8352674620576288e-07 -1.6620488582564508e-07 3.5688824839832577e-09  -3.9757217454717082e-07 -1.5866321190403061e-07 -3.0820732711148423e-10  -4.9407045133423351e-07 -9.3750980799067599e-08 -2.5743322321309632e-10  -5.0122107637620754e-07 -8.7836399569281617e-08 -1.2069518220711727e-10  -4.6926704102155961e-07 -1.0008329327606408e-07 5.3294115229237876e-09  -4.0299191468709607e-07 -1.5248496850484881e-07 -4.2805470353136638e-09  -5.4629214287629470e-07 -3.7460972857895382e-08 -1.4412670282742638e-09  -4.9667461539251006e-07 -7.9002414336383135e-08 -3.7022900075265855e-09  -5.1193102845349649e-07 -2.8664579708671598e-08 7.8565321898937160e-09  -5.4014936143610745e-07 2.9042870127959152e-08 2.0746852789985051e-10  -3.8357087151306535e-07 -1.4249489786753332e-07 -1.7550251728693050e-08  -1.0112230849911054e-07 1.4381071522578596e-07 -5.7657744091427390e-08  -3.4230749910687150e-07 1.8304813565339592e-07 -1.1753824093808273e-08  -4.7572917756861398e-07 4.6965028607810851e-08 1.5852113707469785e-08  -4.6406709030768755e-07 1.0216527782996947e-07 6.1045636862593205e-09  -5.5626292964214888e-07 -2.3306394502018366e-08 1.8681465466346315e-09  -2.0661382219265162e-07 -2.1186239862705633e-07 3.0826262801044390e-08  -4.5703134010394608e-07 -5.9458586180613123e-08 -1.8715326248656991e-08  1.3592728839092033e-07 -2.2218908330633771e-07 -3.6554199672700952e-08  -5.1904940286543302e-07 7.0700403858232930e-08 -1.1985203985545133e-09  -4.1257659430609832e-07 -2.0655937103920070e-08 3.2673836143241066e-08  -3.1422052748438608e-07 -1.2241074597033810e-07 -3.8405165019325806e-08  -3.6468903943310391e-07 1.3105741225783177e-07 2.5361802247031702e-08  -3.3509351813263961e-07 1.8474634956308503e-07 1.2821647694316617e-08  -2.7401403632424864e-07 -2.1654656760197420e-07 -1.4435597046153149e-08  -1.2008289475498055e-07 2.9327015942655269e-07 -2.3139445823812963e-09  -3.5122077501829035e-07 -2.0016585830620635e-08 -4.4399530930127862e-08  -4.7505602143988876e-07 2.5288074838009772e-08 -1.8493810355457266e-08  -2.0967148479131081e-07 2.1013229045374045e-07 3.0809893823821212e-08  -1.8034593992570659e-07 2.5748225716354240e-07 1.5597225034948632e-08  -2.0792222903033840e-07 1.4127756491215176e-07 4.9067629528659432e-08  2.5215651445889128e-07 -2.4264018654322414e-07 8.8495274238803810e-10  -3.5949609819257410e-07 1.8294790198696826e-07 -3.0707216002559160e-09  -4.6385703696341731e-07 1.1225819902514169e-07 -1.7654350165619663e-09  9.5983674322550758e-08 -2.7548566280140405e-07 -2.0361757143055046e-08  -3.9588670190564055e-08 -2.5729191470232743e-07 -3.1777329875386108e-08  -1.5310235145494967e-08 -2.0127715388875356e-07 -4.7845952642675497e-08  -2.0352128510619018e-07 -8.5238285648387853e-08 -5.6703005054278778e-08  -2.9215765351700286e-07 1.6710093613516014e-07 -3.0246820903413864e-08  1.4941132420986647e-07 -2.1644577507261011e-07 3.6906999206944949e-08  -2.8920766807609304e-07 2.2043527251698636e-07 5.1888686971127977e-09  -5.1611555529180684e-08 -1.7479688302389374e-07 5.3518767027273964e-08  -1.2579911215386569e-07 -7.5943580266250560e-08 6.3607822734831746e-08  -5.7306157300811017e-08 -2.9499834732265170e-07 -1.4374568378880805e-08  -1.6230096912675640e-07 5.3768522840176841e-08 -6.3434631547580010e-08  -4.0869241476088580e-08 2.6720591304064971e-07 2.7787514244382549e-08  -3.2786982234293635e-07 7.9097226430691646e-08 -4.2321587503891123e-08  -4.4111598145519556e-07 1.0607695787948169e-07 -1.3666656482255577e-08  -5.2897404046616373e-07 4.3203058670502968e-08 -8.1995683227044738e-10  -5.4027383459994686e-07 5.0114278130175104e-08 1.2355410570331819e-09  -5.6554382963597096e-07 6.4375144806835330e-09 -1.2780610399133296e-09  -2.6778307374003930e-07 -1.3920465120514504e-07 4.1564096662180095e-08  -3.7269333835788960e-07 -1.3765848297287118e-07 2.2102501325355664e-08  -4.4404367696663509e-08 2.9711902434871649e-07 1.3801124482061461e-08  -2.1099754310184962e-08 -2.4543235717113578e-07 3.5664018983692859e-08  2.0145922757272803e-07 -2.5992480067733393e-07 -8.6973755945503098e-09  5.1902581840293334e-07 5.9097464295336902e-08 -2.4090769594185109e-09  3.6472036771832670e-08 1.0054881016996778e-07 6.5058763519051375e-08  7.5429575892894502e-08 3.0229884840632388e-07 6.0563778022953338e-09  -1.9264873484204327e-07 -2.0649200552080510e-07 -3.4766856095690030e-08  5.4124700330381879e-07 -5.1114463738697092e-08 -1.1893848784345190e-09  3.3767795639049753e-07 -1.9231423946748667e-07 -4.9578471087299886e-09  3.9569888697215952e-07 -1.6003224666388278e-07 1.0570135399891568e-10  -4.1726706585056510e-07 1.4560194083020132e-07 2.9447165930957946e-09  -1.6028539783460353e-07 -2.8045810540441606e-07 -2.5544058260649276e-09  -2.8327301963236887e-07 -2.2353246024489244e-07 -4.3835477008006731e-09  -3.6165593591471712e-08 2.0843132349086113e-07 4.6333331331544477e-08  -1.7934952173833113e-07 3.9032952581026989e-08 6.2357444801628689e-08  -3.5519626833630100e-07 5.6618885677448122e-08 4.0680079289551311e-08  1.0875635587184604e-07 -2.9722330285649073e-07 1.7733640853743584e-09  1.1220719364162004e-08 3.0969815906162002e-07 -4.4194928998176328e-09  3.2568523269491357e-07 1.8216421534070664e-07 -1.6922268360673475e-08  5.4098480687331165e-07 -5.1811844275638157e-08 1.0594294204198320e-09  3.1419568039543907e-07 8.6093439972682006e-08 -4.3385261590648655e-08  -4.5782364235522728e-07 1.2069072903726551e-07 -9.7222756264980329e-12  -1.1477757973497186e-07 2.1941875304455527e-07 -3.9508565023386987e-08  3.2029394763825266e-07 -1.4868634648271788e-07 3.0868122746117331e-08  -5.3168112630952677e-07 -1.8641794779180761e-08 -3.2039108804540474e-09  1.3351265147002903e-07 2.4137085500437014e-07 3.0615613172422649e-08  1.7098128116614985e-07 -1.6218137311355394e-07 -4.8850511700572545e-08  6.7694041920308564e-08 -3.0093365325964715e-07 -8.3020660399728811e-09  -3.5876560421602111e-07 -1.7197606388271203e-07 1.1515862705449004e-08  4.6948822203432512e-07 1.1167340067999230e-07 1.5921906425247306e-09  -1.2150465559510317e-08 -9.2127031701110460e-08 -6.6273897529195810e-08  4.4762303592375744e-07 1.1849699426103350e-07 -6.6902244585609705e-09  -5.4540014479876074e-07 -4.7427357809437446e-08 -3.2994953888869929e-10  -2.5630678072970731e-07 2.3917200911937058e-07 -4.8605965726194750e-10  -1.5326393248393142e-07 2.8049049803727210e-07 5.6382059439878173e-09  4.9345280329039701e-07 -9.4881554842082171e-08 -1.0834718143674189e-10  -1.5560439218546042e-07 -1.6631094076622493e-07 -4.8809830797930921e-08  1.9614480298380938e-07 -1.5027255346684409e-07 4.8503958974582334e-08  -2.5599465719289641e-07 -2.4917657530369811e-08 5.5727651137509545e-08  -1.8858360049518448e-07 -2.6192693049817660e-07 -1.1028304528143281e-08  4.8102146655470205e-07 1.0282968685884689e-07 -1.0760633076466941e-09  -3.4467093532834586e-08 3.0907683342359240e-07 3.9905032876995667e-09  -4.3279975276645021e-07 -7.4223321221845581e-08 2.3522159598908692e-08  -3.1804144552681909e-07 -7.1268629903432549e-08 4.4489885707002072e-08  -1.5754078463737832e-07 -2.5263710463740621e-07 -2.2502039327533768e-08  -3.6628961073812653e-07 1.7955201785020718e-07 8.1868178400775684e-10  3.3443641721238232e-10 -4.0784818362595018e-11 -5.8204645195380012e-11  -2.3176459969262859e-07 1.3049499856737898e-07 -1.9227057892683616e-09  3.5633433968569057e-07 -4.8589870305913802e-08 3.4135811721143462e-10  -1.4157323798070844e-07 -1.4076979602133407e-07 -1.3609447912008464e-08  2.6666236385638205e-07 9.6828738998188586e-08 -1.1382919237517395e-08  -1.8504329416638973e-07 -1.4712301061384815e-08 2.9062951665383973e-08  -3.6801326773342711e-07 -2.4188051498678992e-08 -1.7689159919346674e-10  6.9622271162482694e-08 -1.6124241174639928e-07 1.2213905811063958e-08  2.5380773208154169e-07 7.7044219082139404e-08 1.8032322326015152e-08  -2.0353070203373859e-07 1.5072156623022731e-08 -2.7711025658083935e-08  1.8665203912558802e-07 -1.1794878350593880e-07 -2.1436334532341485e-08  -6.8320056984504168e-08 1.3745186579387453e-07 2.4572428727602149e-08  5.6899311538324598e-08 1.9512083585024090e-07 -1.8511687822788727e-10  1.5482278923584908e-07 -5.2746852396046277e-08 3.2816235394405797e-08  -5.7048953462600253e-08 1.5444275466831928e-07 -2.4194747872533332e-08  1.3791264570404151e-07 1.8892111109810513e-08 -3.6019580506751132e-08  -2.4109238337870553e-07 -1.4333626760316107e-07 1.0372462711228708e-08  -3.6167608574838466e-07 6.5662671090220968e-08 1.3343299635587640e-08  3.7375800932211346e-07 -7.7764814401948046e-09 -1.7601118032595047e-08  -5.3073455253866691e-08 -9.5082909586066774e-08 -3.8131411523102516e-08  6.9661535732245027e-08 -2.0663633844108948e-07 -8.3245465789690515e-09  3.0547425333066125e-07 -1.1564003065657898e-07 1.5312202102494282e-08  2.8766731191387138e-07 -1.5976214572022793e-07 -1.4667368326906831e-09  -3.5654280063503768e-07 -7.2319470016425714e-08 -1.6383468587222679e-08  4.2512497880574485e-07 5.6265433725360466e-08 2.1825864271232036e-09  -8.9370398366505359e-08 -1.3919393554978248e-07 3.1919508671674376e-08  -4.1077905353757002e-07 6.2782365059608541e-08 -8.8065128173227395e-09  4.1199858707004951e-07 -1.0817019575485124e-08 1.4010922591856444e-08  2.8488874024033362e-07 1.5788594015108951e-07 4.0667030946000192e-09  -3.8958198988186944e-07 -5.6417840038512382e-08 1.4773269285867471e-08  9.6668186917305701e-08 6.9401704597188258e-08 4.1202209265833579e-08  -1.2947828124471942e-07 2.0877994915200268e-07 9.2415773370783216e-09  -1.2265647507641766e-07 2.1877362831455235e-07 -8.5530585341973896e-09  1.5202049290230814e-07 1.9407185838755758e-07 -1.7041513287762793e-08  -3.2579439769192027e-07 -1.5139613585068408e-07 -5.2899624966541919e-09  1.2994218138137937e-07 1.9109381258447313e-07 1.8378372574458506e-08  -8.8388251375309030e-08 -2.2303873573108089e-07 4.0004863132615653e-09  -2.4539377652959574e-07 8.5273218144364651e-08 3.2867156782420456e-08  3.9078368951214513e-07 -9.7106376424519172e-08 -9.9414405953514742e-09  5.4402456632090607e-08 -1.0583759201671911e-07 -5.3955859519639025e-09  1.6623300658443060e-07 -5.6048270117950648e-08 1.1272398562284011e-08  </DataArray> 
</PointData> 
</Piece>
</UnstructuredGrid>
</VTKFile>