<?xml version="1.0"?>
<VTKFile type="UnstructuredGrid"  version="0.1"  >
<UnstructuredGrid>
<Piece  NumberOfPoints="201" NumberOfCells="657">
<Points>
<DataArray  type="Float64"  NumberOfComponents="3"  format="ascii">-0.3053691399732978 9.986619293272755 2865.55959750084  -0.6651802441351287 7.955816160244345 -2864.043600506769  153.1805440900787 10.5924076331484 -2718.085576115821  283.9525538468266 10.10659024088053 -2301.292343101219  375.9599885532002 -15.76169086221385 -1660.955065444121  427.4444740188129 -33.86782978112433 -869.8573058973304  448.5632805159158 -34.2240268511695 -0.1912016174056841  427.1830927851759 -6.61466090959641 869.1959850507982  374.6346990011671 9.101315360007023 1653.238702993473  282.4205100813633 9.137705370968995 2293.201666423677  152.0073756925993 9.859163202629134 2715.380925985159  197.8484100919566 -3378.63777135491 -2584.536331927654  204.1506476960685 2643.480891803447 2599.189594188294  453.7527741092621 -3432.201259172822 -433.696501341772  344.4031880962633 -3454.611257437698 1978.920255133445  430.9189670356728 3372.036906121303 1227.438501550208  431.6147248343907 3384.277098941055 -1254.406399966081  234.292233903877 3068.567831607744 -2530.67179947603  72.70582139421667 -2968.796313668862 2814.305137320408  337.3553018639237 -3208.907335427957 -1995.950881081706  267.4830639200355 -5744.93680871765 -2255.182819719752  392.052556478703 -5889.694620504501 -1544.028341128476  313.4963180517383 -7685.410705152943 -1636.11855533835  428.6316930011942 -7550.125283786965 -792.4813398122427  308.7780768138147 -8824.123106339455 -732.6204853502506  414.8049529889956 -8295.133629977012 177.3712750006762  240.4731430515278 -9212.577428764818 341.6832188429836  321.938264781294 -8334.167921819957 1229.028588466978  114.0492413085095 -8909.612740573955 1364.536449423022  192.5319116768735 -7587.113223019314 2082.019523249696  -25.56746239602108 -7954.10189373904 2136.366904179932  425.7748019540156 -7129.502190368727 958.6946217113951  348.7363295120566 3201.70652109131 1994.306498923608  415.1260251238586 5906.540665533907 1606.674127412685  484.7331597651403 5901.206793155522 718.8530354905089  57.08899588130818 -6218.303481025563 2602.460795060189  225.7214643705419 -5645.937170855396 2391.373956280925  290.563192068179 5456.789418763845 2302.722719249202  325.8889934624501 7547.018445269696 1777.139264409425  452.6356894142093 -3341.623859865472 433.8633201863778  463.623988285161 -6320.58400023888 55.14069616596153  418.8598433315149 -3383.615035475924 -1221.929014651882  86.03862219228736 2982.638427420926 -2810.328381494329  347.8311483455888 3131.968883589899 -2023.272847525633  410.0914372778241 5863.395600043482 -1638.134782430291  141.608517158818 -8708.196499479694 -1517.271979160618  -132.7917836435314 -8989.720542924078 1299.062059262093  109.8960440225159 -5703.294632347502 -2626.500638952862  482.2975302430984 5962.684497292727 -747.7972592784275  436.5995685262894 7761.036530734485 -992.894656605927  310.2798390546217 7374.678712856983 -1899.146357989115  283.8887507477661 8757.758538340222 -1145.08747632304  127.717950566653 8200.609774713444 -1943.523757154239  54.89706556687347 9198.580916385734 -1073.041883028077  -102.3755508834147 8398.262746569801 -1814.030856617248  -190.3300607876683 9143.322393471124 -805.2302257212775  -312.838621742644 8191.957510144948 -1366.347127244392  -24.5417770131381 9506.62465480643 71.5468265023725  -243.35276404171 -7813.383507762618 1945.578125111034  -350.7180739329736 -8610.408509924069 1004.89364479314  -380.2387181228889 8562.257505316351 -377.6794844270924  -436.4269032055509 7215.741006943578 -878.6515923393027  -465.9222167291151 7274.894472556999 76.87838658307483  -458.6381046077059 5234.969434516908 -496.0249268413804  -459.6024599140578 5005.252092425821 459.4699233297872  -410.3211802910071 4851.255087844166 -1409.808394829801  -429.6729073592079 6761.6990450893 1074.770819160962  -427.6085722231493 2312.673479591518 -839.5927213179546  -414.3815299068531 4120.236486199306 1318.629975880333  -372.7220563357296 1429.129778257107 -1671.313081191407  -423.0183077384862 -1650.140547420521 -1198.853883547875  -347.5724751510164 5665.941940902306 1914.157281383203  -88.36207609234376 -4442.593098544737 2773.048228275628  -399.7457903768954 -7131.642883033606 1510.782285588575  -354.0165861235508 -2126.174132448812 -1935.400427665202  -428.252704346299 -4877.597258693785 -1463.595381681025  -433.1444520971817 1459.049039414041 711.0141952788938  -202.632141766584 6891.636755194218 -2263.728566360604  -331.5660913901347 2575.923589810282 2015.645082665085  156.7124460657919 6886.200230325235 2406.497416861068  -475.3043608924842 -4230.989138840324 -505.8761173069407  -281.5886099712177 837.3627614027982 -2307.065246599044  -235.3881819604625 4328.782808777977 2439.138780090639  -325.1748761961585 -4968.865073642884 -2177.203319130593  -389.5783081255148 -7090.638936474577 -1591.249993707727  -322.2065977339906 7719.505049785178 1587.456404233946  -223.6818852643837 -9342.778165118589 249.4255716691585  -234.4350146521968 759.060515223598 2501.037925040088  -339.4021381409549 -1141.409394546284 1992.951471939754  -233.2636075026965 -6856.655048068881 -2260.51294662934  -269.4889455450011 -8420.25331106028 -1524.508424123532  -173.7352719391032 -4548.983283254062 -2651.988282424573  398.3516048200593 8723.558296774689 -106.5058393956586  -465.2988612213425 -7700.180086579143 618.101916313156  -466.9554532158642 -5638.138394530833 975.6720216150268  149.9311452180146 8502.821244980734 1724.895043911329  -30.6569934153339 7768.237287313234 2208.258461804334  0.7959399371071235 6107.280257349184 2655.949383395752  -133.2913923588379 2778.272611452292 2726.164253577186  -277.3552060873 -5848.395348409706 2279.701582467802  167.130034565757 6770.617146310044 -2416.982512539724  -414.2320498162554 -8303.107949901443 -792.5294360536939  -31.9169324366549 5315.950805747822 -2735.220134500351  -80.67127793952029 2412.529923130657 -2808.183478003687  -72.17378342737257 9010.71603037541 1302.671020010431  -111.9300921241797 -1744.88433023196 2781.682033432176  -69.33580673886874 -8082.854808098133 -2060.740497609672  -243.5367526177437 -2808.275712506295 2511.03599078778  -387.5734887083225 -4608.121686322424 1802.943224756758  -423.1230997609933 -2425.506450933949 1273.823586603874  -465.632111985414 -3193.047484224157 412.7985754387611  -447.4504911462512 -455.6089384386424 -243.7198830399828  -205.3610706585627 4700.958324142339 -2527.367907259764  -318.3411071951734 5298.017335758501 -2074.655093261983  -85.04820465637084 -9070.039451439599 -1259.162354394278  -7.672259596167795 7401.784488346837 -2356.47875786552  319.8924363754409 8744.929081741575 980.1158673468825  417.5420979467723 -3227.619458201245 1277.641078253657  20.09387141909347 -3096.364526398406 -2839.477577554711  113.3053448225689 -9373.897801222776 -604.009166925477  -182.2511360131645 6626.289053401819 2371.385179265838  465.4840777527583 3234.673060596192 -438.1681398994048  446.371162198083 7734.331303201355 902.173482228483  495.7699820055087 7308.534747973431 -38.79532699731685  -475.0051733704099 -6707.151829538169 -832.2384845305538  -247.7306630530442 9181.562245654197 300.2244871749879  -385.6395094533131 8359.437745765912 666.5465672611266  -46.90261437576954 -6293.434088391944 -2612.470974277701  -121.0851120702086 -1258.250691792792 -2779.186237512243  -251.0911848987274 -2063.975562556833 -2462.591153837926  206.393366573923 9362.714156722788 -202.9113723695477  6.037172534515276 -9482.340215154696 437.2314937093208  328.4002558516437 -6801.102970280268 1813.763176643536  465.7030695770251 3269.182433306834 387.2933891485041  222.4860691537599 -3025.65267861928 2537.19469494332  -495.9548171040801 -6257.014014559387 79.96085102553188  -128.7092858577693 -6774.943632738626 2457.240060028246  293.9953329276853 5295.791989070754 -2295.59478994146  -394.900623697119 1013.946445173262 1435.986393135285  138.7057448542015 -7498.86511905367 -2202.499956150866  156.0940205624855 5142.34682216326 2653.796414453502  132.2926060353871 9278.63890925086 818.8740273869048  -374.7371981434525 6817.563398146593 -1573.267114353196  447.6451598243023 -5692.36821754471 -821.9116954611117  -2.119536866139618 2868.649658778111 2837.925345286906  406.6677292852254 -5450.287048549574 1420.211259115827  -454.2623269370264 3083.617069845624 -67.79245288057622  -404.2957939471339 -8711.907189596635 34.75603211356869  -269.614746233194 -9139.252193024484 -638.4692987229952  493.8623110289192 5361.594035561318 -22.45045431436348  -119.0428897600365 5258.805724599829 2661.628086234934  171.7307600393652 4815.315205414143 -2649.218719498023  -168.6228831637269 852.7674409751645 -2685.329577854658  -260.5521646388205 8678.914628540826 1189.130295913934  447.2965497245364 -5355.881609920603 852.4077890004108  -73.49162570081783 -9483.603694735348 -396.5255247761693  -318.6975069721721 3061.142673314965 -2119.017714566187  -218.7796425272497 2523.891605583741 -2541.609521069498  -184.7090858324741 8036.786847194157 1891.950104155728  -480.6761802442515 -7700.775327951508 -196.594718832936  -1.862085193859922 -22.21060007122444 -1.762645899001478  -176.360537128927 -4841.588033541151 87.26695230563202  224.1695176677277 2025.841327336357 -20.19266069440746  -89.16853162649622 5039.783837126701 674.8096212225142  167.7941602978422 -3700.613884426469 589.8157397420526  -106.2319221507614 521.8489507082572 -1254.761144265536  -217.6620712032816 1040.048866297013 -1.321944954930462  64.03859127907033 5594.08226529692 -599.8171099464881  153.7615366858511 -2936.703233988902 -872.1785416980556  -120.062421783122 -568.9919724322783 1218.725056536106  135.5260979420206 4281.066865567624 1044.078966450306  -59.17816855243193 -4787.933491520015 -1153.078501685378  33.32764904352995 -6625.411371596158 6.585028383656288  97.59936683047319 1920.739470753733 -1411.667105363254  -53.79578
[...]
<PointData  Vectors="Coriolis"> 
<DataArray  type="Float64"  Name="Coriolis"  NumberOfComponents="3" format="ascii">2.6559327422704840e-09 -1.2936676579180512e-11 0.0000000000000000e+00  -1.6175892168146419e-09 6.2540472631382851e-11 0.0000000000000000e+00  -1.4209187932383472e-09 8.6592778392901320e-09 0.0000000000000000e+00  -2.0563142804691842e-09 1.6120423714234454e-08 0.0000000000000000e+00  -7.2090421248372150e-09 2.1859775080803320e-08 0.0000000000000000e+00  -1.1738178187648191e-08 2.5219222500366900e-08 0.0000000000000000e+00  -1.0466874443284117e-08 2.5856209391020608e-08 0.0000000000000000e+00  -3.2544243977786443e-09 2.5050777958271659e-08 0.0000000000000000e+00  2.0956353649494621e-10 2.1764077943493165e-08 0.0000000000000000e+00  1.3298095109196442e-09 1.6380722514118857e-08 0.0000000000000000e+00  2.3562161052219742e-09 8.8954294604382021e-09 0.0000000000000000e+00  -3.5036017824990551e-07 1.2065847733583963e-08 0.0000000000000000e+00  2.7586849134340804e-07 8.3678503608112542e-09 0.0000000000000000e+00  -3.5790724510828058e-07 2.4254248031109359e-08 0.0000000000000000e+00  -3.5684303130600764e-07 1.8401052867050126e-08 0.0000000000000000e+00  3.5181109438219463e-07 1.8463619647609641e-08 0.0000000000000000e+00  3.5559806159364329e-07 1.7953971322745792e-08 0.0000000000000000e+00  3.2287231483175582e-07 8.8459338239384637e-09 0.0000000000000000e+00  -3.1065320187791901e-07 6.0001412902304935e-09 0.0000000000000000e+00  -3.3661271204400912e-07 1.8396058276526479e-08 0.0000000000000000e+00  -5.3383747127291937e-07 1.2406473260014292e-08 0.0000000000000000e+00  -5.4876515231244584e-07 1.6392258492095585e-08 0.0000000000000000e+00  -6.3381411825857358e-07 9.2602448146209303e-09 0.0000000000000000e+00  -6.3759553328345739e-07 1.1869629313528978e-08 0.0000000000000000e+00  -6.7126957183751916e-07 5.5629077448410882e-09 0.0000000000000000e+00  -6.6343553735908821e-07 8.1189551962013719e-09 0.0000000000000000e+00  -6.7737911896996360e-07 4.0590421422806409e-09 0.0000000000000000e+00  -6.5824716752764054e-07 6.9172932964981483e-09 0.0000000000000000e+00  -6.6649707839942800e-07 4.9627564378895676e-09 0.0000000000000000e+00  -6.2696236174000889e-07 6.9861666270999620e-09 0.0000000000000000e+00  -6.3744245054069921e-07 4.7300379609245955e-09 0.0000000000000000e+00  -6.2311750784532479e-07 1.4105767262566487e-08 0.0000000000000000e+00  3.3396176006936357e-07 1.4683055036214084e-08 0.0000000000000000e+00  5.5182418891140790e-07 7.6701967416527823e-09 0.0000000000000000e+00  5.5709053319432375e-07 1.0279866942594022e-08 0.0000000000000000e+00  -5.6175097287277702e-07 5.7556133474527407e-09 0.0000000000000000e+00  -5.2638802570090814e-07 1.1463686201779942e-08 0.0000000000000000e+00  5.1794995447487366e-07 4.8336828739733149e-09 0.0000000000000000e+00  6.2683826032438012e-07 -1.8724485746679378e-10 0.0000000000000000e+00  -3.4847389430141089e-07 2.4514903933962529e-08 0.0000000000000000e+00  -5.8153994145808686e-07 1.8572185345787193e-08 0.0000000000000000e+00  -3.5402628395131791e-07 2.2429639163510671e-08 0.0000000000000000e+00  3.1337246429250027e-07 1.6651957528200594e-09 0.0000000000000000e+00  3.3101849434902956e-07 1.4272842047092578e-08 0.0000000000000000e+00  5.4795875615790915e-07 7.9776730436215122e-09 0.0000000000000000e+00  -6.6119817923149239e-07 5.3932884897106566e-09 0.0000000000000000e+00  -6.6831197621745448e-07 4.8677097016461153e-09 0.0000000000000000e+00  -5.2725494342348688e-07 7.4462022858535184e-09 0.0000000000000000e+00  5.6245159828476579e-07 1.0078965924416323e-08 0.0000000000000000e+00  6.4271855022101044e-07 6.9367876886608244e-10 0.0000000000000000e+00  6.2088362653306278e-07 3.3827447500342679e-10 0.0000000000000000e+00  6.6431612813333124e-07 -4.1219667703384801e-09 0.0000000000000000e+00  6.4527671650837543e-07 -3.6376826480298971e-09 0.0000000000000000e+00  6.7049735740771594e-07 -4.9238095069808068e-09 0.0000000000000000e+00  6.5123736023830341e-07 -5.3077422687669952e-09 0.0000000000000000e+00  6.7205252702909785e-07 -4.7010941375297341e-09 0.0000000000000000e+00  6.5205207447597320e-07 -7.3984239634327346e-09 0.0000000000000000e+00  6.7734345071472695e-07 -4.6006055950366865e-09 0.0000000000000000e+00  -6.3652498620642719e-07 2.3642635347597160e-09 0.0000000000000000e+00  -6.6588858195307420e-07 3.7955501605073861e-09 0.0000000000000000e+00  6.6648661702706010e-07 -6.5656509038166753e-09 0.0000000000000000e+00  6.2594123505105130e-07 -1.2803343845203441e-08 0.0000000000000000e+00  6.2940247790428194e-07 -1.2747838516880590e-08 0.0000000000000000e+00  5.1258411931833601e-07 -2.1137490799093073e-08 0.0000000000000000e+00  4.9456863199523197e-07 -2.1638977283069172e-08 0.0000000000000000e+00  4.7922155196503939e-07 -1.9590071228306231e-08 0.0000000000000000e+00  6.0256228669381702e-07 -1.4441684412391756e-08 0.0000000000000000e+00  2.5067048615051656e-07 -2.5890197857151112e-08 0.0000000000000000e+00  4.2315490698719846e-07 -2.1632626803026835e-08 0.0000000000000000e+00  1.5342490893890492e-07 -2.2440645626295590e-08 0.0000000000000000e+00  -1.7989235473290528e-07 -2.1431668641804742e-08 0.0000000000000000e+00  5.3447004865129825e-07 -1.4697378439288277e-08 0.0000000000000000e+00  -4.3624394856125406e-07 2.0887787358358878e-10 0.0000000000000000e+00  -6.1741724692794111e-07 -3.2362252248570717e-09 0.0000000000000000e+00  -2.2942218788745192e-07 -1.6673283504181741e-08 0.0000000000000000e+00  -4.7967148809708613e-07 -1.2259810819907869e-08 0.0000000000000000e+00  1.5450172229220735e-07 -2.5947949566860626e-08 0.0000000000000000e+00  5.9634060326572463e-07 -8.7824520304155906e-09 0.0000000000000000e+00  2.7086441191247481e-07 -1.9506899743029548e-08 0.0000000000000000e+00  5.9385476523148305e-07 -1.7859322074518780e-09 0.0000000000000000e+00  -4.2896713246639093e-07 -1.7020424126997029e-08 0.0000000000000000e+00  8.9114202748064656e-08 -1.6497263826152235e-08 0.0000000000000000e+00  4.3661358989253517e-07 -1.3509528503344907e-08 0.0000000000000000e+00  -4.8203287592665037e-07 -7.7574174720617121e-09 0.0000000000000000e+00  -6.1187839151278473e-07 -3.0999324634158947e-09 0.0000000000000000e+00  6.3648483864034157e-07 -8.8804448946982557e-09 0.0000000000000000e+00  -6.7941868061086111e-07 5.5136874594429990e-09 0.0000000000000000e+00  8.2354257454692888e-08 -1.3637333498117167e-08 0.0000000000000000e+00  -1.2710509564537698e-07 -1.7775420581772887e-08 0.0000000000000000e+00  -5.9298572845391424e-07 -2.5399555172320719e-10 0.0000000000000000e+00  -6.5593826227092119e-07 3.2867964127405157e-09 0.0000000000000000e+00  -4.4753899401629257e-07 -3.1182831537793707e-09 0.0000000000000000e+00  6.6962448217980200e-07 -3.5899732811324420e-09 0.0000000000000000e+00  -6.4867191569881045e-07 -2.1862147273749748e-09 0.0000000000000000e+00  -5.3423927644117475e-07 -1.1443222760967844e-08 0.0000000000000000e+00  6.5342627669834456e-07 -3.8512071427763334e-09 0.0000000000000000e+00  6.2865994535013555e-07 -5.0105792248674175e-09 0.0000000000000000e+00  5.5379909072073682e-07 -4.6112329203412593e-09 0.0000000000000000e+00  2.8847964161291502e-07 -9.0755847098224766e-09 0.0000000000000000e+00  -5.4140242981527984e-07 -4.6085833582960372e-09 0.0000000000000000e+00  5.9003414192877611e-07 -1.0536404881046763e-09 0.0000000000000000e+00  -6.6380993330018989e-07 1.1257150093450756e-09 0.0000000000000000e+00  5.0304245772981423e-07 -5.1011538339797051e-09 0.0000000000000000e+00  2.5685441404203300e-07 -6.0539155348465156e-09 0.0000000000000000e+00  6.6612241133731906e-07 -4.7610714436635633e-09 0.0000000000000000e+00  -1.9026986766704005e-07 -4.3297726243607958e-09 0.0000000000000000e+00  -6.4076882631105905e-07 4.2578396144516296e-09 0.0000000000000000e+00  -2.9785680811906007e-07 -8.9879313997495533e-09 0.0000000000000000e+00  -4.5472089848869991e-07 -1.1751189443698638e-08 0.0000000000000000e+00  -2.6287294961981395e-07 -1.9656039145565742e-08 0.0000000000000000e+00  -3.3794536546707599e-07 -2.0112070845357739e-08 0.0000000000000000e+00  -5.6191862735597809e-08 -2.5250601846442480e-08 0.0000000000000000e+00  4.6215725296075002e-07 -1.1469315234515720e-08 0.0000000000000000e+00  5.0731854832377680e-07 -1.4902397925049073e-08 0.0000000000000000e+00  -6.6976882855689868e-07 4.7299921928592972e-09 0.0000000000000000e+00  6.1643311588317562e-07 -4.8491888964389014e-09 0.0000000000000000e+00  6.6538090289289563e-07 -3.7085722048928846e-09 0.0000000000000000e+00  -3.3650543805846815e-07 2.2561775082373694e-08 0.0000000000000000e+00  -3.2280153594708010e-07 3.4215465364375651e-09 0.0000000000000000e+00  -6.7845645100667848e-07 4.2055130134422706e-09 0.0000000000000000e+00  5.8289981258363918e-07 -8.3223638989967244e-09 0.0000000000000000e+00  3.4229562310830740e-07 2.0266706351931338e-08 0.0000000000000000e+00  6.4227264933179749e-07 9.0183941649690692e-10 0.0000000000000000e+00  6.3116580371612668e-07 3.7394870206062306e-09 0.0000000000000000e+00  -5.9763286649498033e-07 -6.8362609021988616e-09 0.0000000000000000e+00  6.7491914840808215e-07 -4.5971354541261083e-09 0.0000000000000000e+00  6.6032581021910739e-07 -7.3548281931701055e-09 0.0000000000000000e+00  -5.6112361770530721e-07 3.2244839710606554e-09 0.0000000000000000e+00  -1.3818755700017910e-07 -5.3570929128693391e-09 0.0000000000000000e+00  -2.2236061247371036e-07 -1.1302434425751081e-08 0.0000000000000000e+00  6.7656606501243301e-07 -5.3638695010835576e-09 0.0000000000000000e+00  -6.7930898968371938e-07 4.6294356293087077e-09 0.0000000000000000e+00  -6.0065861535259942e-07 1.2655345370587885e-08 0.0000000000000000e+00  3.4417532256645606e-07 2.0371696340347878e-08 0.0000000000000000e+00  -3.1620530244778566e-07 1.2837759688274265e-08 0.0000000000000000e+00  -5.7802330898545885e-07 -9.9672883097819568e-09 0.0000000000000000e+00  -5.9113774241606274e-07 1.5816596967610200e-09 0.0000000000000000e+00  5.0456012905153963e-07 5.5143703994045619e-09 0.0000000000000000e+00  1.0922565757527259e-07 -2.3283509506299691e-08 0.0000000000000000e+00  -6.1957303369034389e-07 6.8777900452287516e-09 0.0000000000000000e+00  4.9411606623079509e-07 1.0758255772335690e-09 0.0000000000000000e+00  6.7272931253269167e-07 -4.9008840723101015e-09 0.0000000000000000e+00  6.0101953817297025e-07 -1.2831226811169974e-08 0.0000000000000000e+00  -5.3900025125753392e-07 1.9433901284375796e-08 0.0000000000000000e+00  2.9705933073364720e-07 -2.3718418535226803e-09 0.0000000000000000e+00  -5.2080519901560231e-07 1.8422318320497653e-08 0.0000000000000000e+00  3.2666389379938578e-07 -2.5533681585282495e-08 0.0000000000000000e+00  -6.7279801986092837e-07 3.3960625453308814e-09 0.0000000000000000e+00  -6.7634883031368487e-07 5.1216592770240626e-09 0.0000000000000000e+00  5.2113602918205217e-07 1.3377308059775549e-08 0.0000000000000000e+00  5.0299260803925136e-07 -8.0396653713578046e-09 0.0000000000000000e+00  4.6838413848597466e-07 2.0821070554068481e-09 0.0000000000000000e+00  9.0983329940507616e-08 -9.7417614176744679e-09 0.0000000000000000e+00  6.6253199511123229e-07 -5.6961084195757718e-09 0.0000000000000000e+00  -5.1569356300852638e-07 2.0215541544107035e-08 0.0000000000000000e+00  -6.7999550415027852e-07 4.9600641211044380e-09 0.0000000000000000e+00  3.2198917858307442e-07 -1.8180707739581023e-08 0.0000000000000000e+00  2.6852464411117443e-07 -1.3293072153181733e-08 0.0000000000000000e+00  6.4096793247990517e-07 -6.4381255328745437e-09 0.0000000000000000e+00  -6.4517702607260657e-07 -2.1876100496769550e-09 0.0000000000000000e+00  -8.2619070510036356e-09 2.1678659964372078e-10 0.0000000000000000e+00  -4.7819178925762719e-07 -3.1544648695980927e-09 0.0000000000000000e+00  2.2129243449762188e-07 1.0671878443030442e-08 0.0000000000000000e+00  4.9955079260094421e-07 -7.4066099596295730e-09 0.0000000000000000e+00  -3.8245258083113967e-07 1.0831323384942709e-08 0.0000000000000000e+00  5.1264038126515164e-08 -6.4950512782706041e-09 0.0000000000000000e+00  1.1343806441174787e-07 -1.3750719362895682e-08 0.0000000000000000e+00  5.3886078098633468e-07 -2.0180516812923912e-09 0.0000000000000000e+00  -3.1140811488404468e-07 1.0015349407464951e-08 0.0000000000000000e+00  -6.5111147365646928e-08 -6.2915761521637886e-09 0.0000000000000000e+00  4.3653555262860615e-07 2.5929472888734743e-09 0.0000000000000000e+00  -4.7541354860666458e-07 1.4289374051391508e-09 0.0000000000000000e+00  -6.0152792632516214e-07 5.6686937199985241e-09 0.0000000000000000e+00  2.0862443988363092e-07 3.7867427003694595e-09 0.0000000000000000e+00  -5.0884540237005859e-07 2.0338472725129238e-09 0.0000000000000000e+00  -7.7931357919666800e-08 5.2261609698970918e-09 0.0000000000000000e+00  5.1574274715161641e-07 -1.0269936687144068e-08 0.0000000000000000e+00  -2.8390411264835966e-07 -9.9106102955083068e-09 0.0000000000000000e+00  3.8558935291168731e-08 1.2940090432192009e-08 0.0000000000000000e+00  3.4391685277258631e-07 -3.9881064559519664e-09 0.0000000000000000e+00  6.1444675501705488e-07 -3.0721985383483622e-09 0.0000000000000000e+00  4.4874293738308870e-07 5.8694517678703334e-09 0.0000000000000000e+00  5.6632172365209023e-07 3.1341728437608321e-09 0.0000000000000000e+00  3.0979427087171586e-07 -1.4237697150754789e-08 0.0000000000000000e+00  -2.6464428746342364e-07 1.6416010011490703e-08 0.0000000000000000e+00  4.7098807908489438e-07 -6.0312254218198502e-09 0.0000000000000000e+00  -2.9253797129841113e-07 -1.1805926331708365e-08 0.0000000000000000e+00  4.2447439466365211e-08 1.4785005922223251e-08 0.0000000000000000e+00  -5.5657326689980903e-07 1.1627153912597138e-08 0.0000000000000000e+00  2.5778424401671404e-07 -1.5533476356858283e-08 0.0000000000000000e+00  -2.5700820550984872e-07 4.7703858629624476e-09 0.0000000000000000e+00  -6.1886292722569214e-07 1.9798854300842785e-09 0.0000000000000000e+00  -6.3249959094892887e-07 2.3907220885384920e-09 0.0000000000000000e+00  -5.9802227097670801e-07 7.8102424092319606e-09 0.0000000000000000e+00  5.6145115004883153e-07 -1.2489319568005785e-08 0.0000000000000000e+00  -5.8671544305189203e-07 7.3041240300335436e-09 0.0000000000000000e+00  6.3546898701665303e-07 -5.9399927143680668e-09 0.0000000000000000e+00  -3.2777069716497302e-07 -5.4965178487229519e-09 0.0000000000000000e+00  4.1750407381639082e-07 9.9967321265872665e-09 0.0000000000000000e+00  3.9499360145876798e-07 -1.2224787189283131e-09 0.0000000000000000e+00  2.3438243356505951e-07 3.6291878853347144e-09 0.0000000000000000e+00  </DataArray> 
</PointData> 
</Piece>
</UnstructuredGrid>
</VTKFile>