<?xml version="1.0"?>
<VTKFile type="UnstructuredGrid"  version="0.1"  >
<UnstructuredGrid>
<Piece  NumberOfPoints="201" NumberOfCells="657">
<Points>
<DataArray  type="Float64"  NumberOfComponents="3"  format="ascii">-71.37267907296631 -66.50987298190546 110.3838757246654  43.42972802374493 72.87612388045152 -108.3445828436058  2406.272450869569 -232.9084549375259 -359.8721978164403  4002.44512026736 -426.2422836118761 -543.4090172800611  4842.846080070868 -510.9924215339093 -624.6216983378612  5263.550768420127 -538.8345053994285 -576.2413796528122  5396.607287926538 -547.5115706782475 -458.6093342875094  5270.106947170801 -552.506566313133 -344.5754562027005  4844.276606354478 -550.5300297127808 -274.5456643787392  3972.505641010272 -512.8442654590856 -232.2373783673639  2327.754190379114 -350.8404618867622 -114.6760848089158  3036.652010355752 -1463.263676440954 -143.5533088856937  2639.967761513962 533.8851425808723 -372.7976762662173  5307.624636728799 -1416.206095904934 -345.8921821069101  4404.584639542616 -1542.085166049321 -1.611704331007305  4807.64974146697 376.5806380100966 -482.1759933816662  4789.543862742367 391.6546071596556 -764.8659844174324  2908.44191329619 713.4072040143692 -689.9109614063675  1329.619550721907 -1314.998826056696 279.3384616669521  4432.303812126455 -1420.096749489704 -368.7053386428578  3391.847722337115 -2240.709871069171 -32.25362090591847  4391.871838181641 -2203.828164045204 -176.0527719640834  3261.34792874844 -2812.435405014027 105.0815544917744  4124.204603928867 -2685.520530879875 11.67866605193808  2869.018125049432 -3129.29325879729 269.4900993412861  3732.734920855754 -2929.944728872114 203.5101108621002  2280.742007640986 -3231.001767402248 453.9983168855795  3064.020388457474 -2995.30396844424 404.4655415981226  1475.38050500027 -3122.635237667316 625.8595930228241  2252.623467807441 -2811.849556995021 535.4717986576198  420.7215540374751 -2768.00396415851 746.1651081429192  4273.66177141268 -2552.022584800482 153.364067743205  4138.003737258086 448.3368749695549 -456.9095759282766  3797.361776778302 1292.412312536602 -599.094397261284  4395.194301698365 1126.285615880782 -639.9377638309458  1146.173409645222 -2355.316695439445 582.660613539775  2982.064120501554 -2265.928475603762 333.7594347469629  2761.233194453332 1415.665379519383 -557.6220719193287  2297.682147527027 2129.015632838912 -641.4243522804744  5312.583819992557 -1399.476888425276 -230.6459846136713  4828.786738082933 -2246.397041939584 -68.47938264954448  5074.242295777852 -1433.038996080048 -410.2667663466039  960.0342997457624 1033.153935310794 -503.6564094124628  4104.102220977299 479.9267401835231 -776.1096520540054  3760.385114902186 1308.400916156045 -878.6582340629811  1745.573179339163 -3087.141453209763 374.2774463938082  -316.7970960055621 -2929.482887412372 788.591520752286  1847.647145306025 -2198.033914573271 198.7429385165045  4354.593446605904 1157.285764106692 -800.2574322117332  3123.939344191569 1970.490915614457 -866.7500623185846  2249.626290035414 2103.583201292092 -895.6293354105669  1495.245256112753 2633.303062709088 -840.7234571711545  425.1630624527494 2700.144164635908 -811.133641659382  -306.4873626176908 3065.370716240335 -715.9803369557667  -1460.93298862461 2992.112645172659 -639.1654899087355  -2006.522043825486 3214.832641488157 -524.6383275229201  -3075.234804895501 2974.958343071426 -412.5245497043517  -866.4957586281533 3211.404692969072 -580.2443111891605  -1493.26700632798 -2402.083379081628 876.4124518007353  -2043.910781587035 -2481.211070843622 858.2547847744677  -3417.857818859588 3049.234710125436 -283.339199937351  -4273.916858370989 2600.33984897749 -159.9689684874748  -4445.271000172832 2583.144648634773 -28.87095204656195  -5048.126670596994 1934.730541567558 89.65905087375536  -5094.418383172409 1862.859987830254 232.6599333083186  -4730.700572258818 1897.776665447465 -28.18625922966567  -4398.193083679855 2457.147928524486 92.84497242778879  -5256.811820170239 1145.967522169805 220.735529548197  -4921.190799646057 1647.323962534736 351.8570888983229  -4831.775479569981 950.794348126369 180.2831078343686  -5021.499999830056 106.3623083610925 394.8460216113618  -4078.772009078325 2192.691937721914 143.6788052072302  -755.7684761981974 -1556.226715381854 616.7486445099153  -3149.434921035178 -1815.352696714465 898.3985577280207  -4380.282600356691 -100.1254699181999 394.8686226132023  -4305.014663537238 -893.2353488615294 559.7654600086532  -5303.490218903858 921.4403855775823 480.9226537172272  -2517.971760348478 2629.094806436617 -473.0913091411163  -4443.891214130536 1246.326307483317 412.26779085242  921.1714881778554 2230.665900675885 -536.4625757303143  -4899.725752401249 -580.7145489811431 584.741814941127  -3951.741012378938 764.3913565257114 166.5944915438802  -3373.386443350882 1796.918754975604 116.0709650707328  -3296.052286022937 -1162.385108834906 547.8404280177188  -3079.974221769709 -1815.255496244331 646.691431784527  -3321.711030197899 2835.282663325647 -104.3384024823689  -886.9188466620709 -2908.413705258427 749.8854177128648  -3472.248055142883 607.6410071969035 417.019829910839  -4406.664894253377 138.0773149770474 668.9280328334469  -1726.402331523838 -2071.768193659999 585.3546656425407  -1497.955611756912 -2552.986446632466 647.2805503741298  -1749.763718330971 -1340.222047593152 459.6419147087703  2380.729166329969 2407.999896295406 -789.7883663222343  -3435.063583749766 -1870.444912739481 836.5303290090998  -4365.395651365631 -1086.993960060584 823.9901311126471  520.5430519272227 2756.035902839844 -579.1716761416934  -965.4740643947873 2759.995489730782 -409.2814116265708  -635.2103147492617 2208.368738860318 -357.8936079288193  -2279.534491897115 1213.786781737302 87.86168944446869  -2573.498754356603 -1622.758967436531 862.891864232327  1108.192483135055 2193.464140149767 -819.1825224745921  -2727.131918955521 -2223.101199697433 721.1981436048753  -870.8282334098584 2052.666388577876 -540.7773310875054  -1401.730521963026 1123.541856412206 -216.5166258180713  -1228.598408841038 3126.019021618691 -453.0730023117908  -1562.54008421352 -511.7463935275728 442.9534963850002  101.7595216640674 -2751.441334630743 511.7666437031885  -3031.691101673822 -617.8318796321337 682.0381230945193  -4033.350304970251 -919.4042737656553 845.7575846089746  -4893.144370636885 -126.6558607061231 728.1552305961172  -5085.222736031027 -283.3514934279065 655.4504025236937  -5348.347348864809 442.6799125364529 437.4280049563571  -2898.438433248106 1981.413193427318 -272.8224700903398  -3889.305346800281 2132.055464084443 -195.0289904161696  61.34276226274199 -3007.665574925393 571.9746085169235  -693.4001894974012 2642.252406561722 -696.8073461494647  1778.79896082892 2562.437966551231 -690.2601828027194  5044.973998367886 -1411.614872804436 -119.7007015349702  658.2003409641192 -1169.808478258014 136.3504171783038  1436.134258546243 -3232.808953897601 481.6434758788726  -2446.048717323605 2527.540640143117 -168.368415583155  5095.38380478356 289.740507931891 -661.2499552965037  3224.583612839989 1931.602727214854 -700.0251858539093  3827.7946235929 1647.757341419901 -764.2710517817425  -3971.497381811427 -1469.551211406423 675.5972608091876  -2381.08408207912 3237.447770322155 -385.040393524493  -3524.761070148354 2990.63619629638 -161.7689410258693  108.1820690289779 -2216.493041934087 430.3414236461142  -1670.52869100021 -186.4577278262126 179.9675071419172  -3303.500150412714 -238.5268608617565 359.786987464436  747.1599085428314 2934.116572239825 -732.5379485933488  697.0943516539005 -3190.697305014091 641.6253473116348  3621.013009139156 -2550.365328635966 306.1053379398529  5100.120870590054 297.1031943366626 -551.6546749674411  3207.772768062479 -1445.172063796824 93.85951254484286  -4384.871908392522 -1226.364945148356 740.5213200185833  -760.4648792121543 -2257.923128781332 792.5949906626081  2861.187357051435 1392.677295570802 -844.8465957524091  -5002.505379360229 795.8077794099873 561.6940736997283  1916.096919138125 -2764.381280909886 286.6534555917692  1340.69303808169 1602.004863182417 -474.4526758706199  234.2604633772063 3003.576025105267 -619.9598682822968  -3954.142851555162 2546.335378747372 -249.4415013463722  4866.761061988544 -2076.037001659352 -207.5372619280973  -396.7764298084233 1043.086181027928 -140.0475083289063  4586.23743658517 -2073.24361924434 72.78842589867264  -5338.296298032845 1328.740758478425 289.1331316325924  -2423.065108145305 -2410.725037489832 787.2573359385798  -1265.563324830897 -2781.729020206295 700.1978565571342  4692.467607299024 912.226781074678 -690.5075885558867  -1993.204887865699 2051.47843310935 -144.6733806478256  1663.149235658826 1508.272418598635 -731.9159012980019  -2561.619090731821 680.4484316468372 52.96701182750537  -2608.119644836229 3112.447636684502 -272.0767634589526  4918.535601281824 -1983.52191030968 -32.23797801727864  169.8245141772312 -3124.704638881794 624.7205089176613  -4245.445961777144 1459.629149419911 9.592596999793736  -3212.898328577458 1289.936531079655 -50.18195069521517  -2214.408803069916 2928.935248321613 -270.9521870097919  -3530.019647010131 -1847.080122314946 760.1184800850605  -9.679492012421484 3.426160042025141 0.8457853248546999  -2000.352179392555 -1250.903813682963 587.5592432216114  3317.998184387823 189.9415467500152 -478.4039352551162  -1751.202361294673 1795.786985593172 -212.0328914247992  2808.995045374998 -1481.247867169354 48.69304808495318  -1860.718099730957 444.6013094732496 85.64753289063179  -3566.541131351126 723.3813608888975 273.3944858456207  337.1297271609038 1757.228919178177 -529.5085190866478  2681.677568717465 -1207.281506287479 -70.30937161715353  -2010.805921160056 35.98754481028851 302.4294924371624  1578.288194256108 1138.078661739308 -467.2462202849549  -366.1232671406935 -1483.356784492085 397.5382799411278  1005.412295726045 -2242.563385023512 445.7985727363713  1448.022376592986 478.3180650081253 -369.239420217266
[...]
<PointData  Vectors="Velocity"> 
<DataArray  type="Float64"  Name="Velocity"  NumberOfComponents="3" format="ascii">-9.7269139624886692e-05 -1.6994721593895846e-05 -7.4006714503373374e-05  2.8036790086927964e-05 3.7733387547941160e-05 8.2295414506418173e-05  2.3989547610469729e-03 -5.3466449772323656e-04 -1.3044559321364143e-04  3.6220480619924196e-03 -8.5485078937290481e-04 -2.6295725118970963e-04  3.8889085685267300e-03 -9.6164167422948838e-04 -3.4855153982346566e-04  3.9304029212457459e-03 -9.8711508089507774e-04 -3.7855792903748964e-04  3.9406336036049002e-03 -9.9153103007783815e-04 -3.8170839550581606e-04  3.9477757872052382e-03 -9.9316588108200538e-04 -3.9210900496029869e-04  3.9054632372562395e-03 -9.8566196724017823e-04 -4.1865364588921402e-04  3.5952406516453856e-03 -9.1072945386669519e-04 -4.2864351795806894e-04  2.3148608994441955e-03 -5.8680599378725185e-04 -3.0587473365829300e-04  3.0467048789860011e-03 -7.7955826799866034e-04 -8.9823160614547335e-05  2.3913595962623655e-03 -5.3641611734794577e-04 -4.0894518304452915e-04  4.0641097083655535e-03 -1.0176098365395072e-03 -3.4370461578103669e-04  3.8338041216819407e-03 -9.8065765993406270e-04 -3.5533276199474441e-04  3.6261779023030773e-03 -9.3431171976772801e-04 -4.3832446912994152e-04  3.6208773398583539e-03 -9.2999299658596938e-04 -3.8969389420310109e-04  2.5590028010031396e-03 -5.4417616939123634e-04 -2.4628900434183425e-04  1.5390280781584025e-03 -5.1545076676208902e-04 -1.1728371208372304e-04  3.8783988718662358e-03 -9.5639164031902633e-04 -2.4114776173255091e-04  3.2870610294706035e-03 -8.2023330421791168e-04 -9.1185771192842999e-05  3.7798693460172521e-03 -9.2086360531608790e-04 -2.1546325912682538e-04  3.1228543533254097e-03 -7.0987264035161902e-04 -8.9760177088239629e-05  3.5479524664796427e-03 -8.2641648602394544e-04 -1.9607184835522575e-04  2.8375233485335191e-03 -5.6640393745139715e-04 -7.6462448685759012e-05  3.3151474929086146e-03 -7.3642420527667962e-04 -1.7389229831546484e-04  2.4257409891345304e-03 -4.2179961221082570e-04 -5.0183362226231218e-05  2.9429741816499686e-03 -6.3210966002880662e-04 -1.3979110504519591e-04  1.8193329097591308e-03 -2.7955211971537213e-04 -1.2710502217010168e-05  2.4173234974968561e-03 -5.5121990097300186e-04 -1.0477493429397859e-04  9.0713138459101923e-04 -1.2675115633678348e-04 4.6518218083054088e-05  3.6217247717959511e-03 -8.5991977443839807e-04 -2.4503659095459539e-04  3.4076019120475491e-03 -8.5702273218508636e-04 -4.7448914537856794e-04  2.8658060214978532e-03 -8.0769538696322436e-04 -4.5194955452424910e-04  3.1806227112514381e-03 -9.0036675500561162e-04 -4.2796057578226650e-04  1.4903054471807219e-03 -4.3279289544665079e-04 -3.8406328918486534e-05  2.9925283442390630e-03 -7.9621605779289697e-04 -2.0536997659867799e-04  2.1690328670767181e-03 -5.5763950671636057e-04 -4.3716128316068710e-04  1.5253794071951484e-03 -5.2994033563565990e-04 -3.8483353614170976e-04  4.0601340218800568e-03 -1.0181477826748603e-03 -3.4957020594049128e-04  3.8777102510990889e-03 -9.3988555404172873e-04 -2.8106694559097164e-04  4.0597157633218755e-03 -1.0101486909197923e-03 -3.1820804817153382e-04  7.4025028343205064e-04 -2.7903887818494601e-05 -9.4829633893726514e-05  3.3782839720363188e-03 -8.2296936595821523e-04 -3.3190579457181412e-04  2.8246670510177424e-03 -7.8677238410292940e-04 -3.4439764594515601e-04  2.0656107268566671e-03 -3.6199478850598878e-04 5.4332884363980431e-05  3.1442877710698001e-04 1.4357636848695272e-04 1.3337354997933738e-04  2.1503824769390492e-03 -5.7496496138391136e-04 7.1134427488605238e-05  3.1379163476935321e-03 -8.9144532962364797e-04 -3.8954954582377555e-04  2.1558683935193313e-03 -7.3397449651687501e-04 -3.3081317562242010e-04  1.5162393435755989e-03 -5.0818040369786648e-04 -2.5019471721527591e-04  7.1793634807975390e-04 -4.1992499722668650e-04 -2.1872927090447577e-04  -1.8436363168704501e-04 -1.0756870805069828e-04 -1.1201984311891419e-04  -9.0029940639825209e-04 -2.0850904471232247e-05 -7.8278070950613886e-05  -1.8505871253334245e-03 3.2617908122813068e-04 3.5144665888706521e-05  -2.2760279436825864e-03 3.7852493449965836e-04 4.6866534420201453e-05  -3.0010938053570912e-03 6.6034285828278627e-04 1.4733270144965223e-04  -1.4018725119589377e-03 8.7359060640815301e-05 -6.9274891503796581e-05  -8.3721114129885134e-04 3.3934657667985114e-04 1.9886962954850237e-04  -1.2097822879171725e-03 5.2726596655560103e-04 2.6364296338115872e-04  -3.1874647862484375e-03 6.9485231038874968e-04 1.5153561109156394e-04  -3.6507433398539767e-03 8.9449511743366710e-04 2.2680639918795789e-04  -3.7103501656432607e-03 9.1150637888530331e-04 2.2544954013669992e-04  -3.9784674029291964e-03 1.0095626083365733e-03 2.9786589229185344e-04  -3.9758069063381115e-03 1.0101428198543820e-03 3.0023809212538982e-04  -3.9067803696488379e-03 1.0044037595280610e-03 3.0164650767269840e-04  -3.7422543743660134e-03 9.2771838173057912e-04 2.1545287886019898e-04  -3.9961000245657520e-03 1.0158164846613797e-03 3.5648195593044972e-04  -3.9705131894011468e-03 1.0083512447111493e-03 2.8944815922672630e-04  -3.9431863029743648e-03 1.0037459472730438e-03 3.9463691748278730e-04  -3.8165361625586468e-03 9.5980243988622385e-04 4.2287540449404581e-04  -3.7061364537762909e-03 9.3669383675191575e-04 1.6727534278544176e-04  -4.6846481001747858e-04 -1.9126954094282772e-05 1.0482518517271086e-04  -2.2490470884929570e-03 6.9491061903788050e-04 3.1600972052181129e-04  -3.6188081567171218e-03 8.9489931682571518e-04 4.6768037250085129e-04  -3.2996030975544011e-03 8.7334688183733123e-04 4.7189939376252098e-04  -3.9631532071954696e-03 1.0036592592706452e-03 3.6390632126472266e-04  -2.6479875248920084e-03 6.5795059078686694e-04 1.4358296359307169e-04  -3.8677929687084916e-03 9.6592361598856749e-04 2.5327221546845338e-04  3.5103073236452173e-04 -1.3328190290889805e-04 -3.1184886998242224e-04  -3.5836608829496455e-03 9.3882564613364953e-04 4.3451004867712341e-04  -3.5924741410862859e-03 9.1357814602655810e-04 4.0918303203417374e-04  -3.3343467116204624e-03 8.6985300451757704e-04 9.8196669762659822e-05  -2.6397634256972759e-03 6.6473455503343669e-04 4.6327070016050423e-04  -2.2094478773600230e-03 6.8038291410238156e-04 4.2084153145714276e-04  -3.1919200198719513e-03 7.4090748539604873e-04 9.4958178859068691e-05  -1.5624681312971853e-04 3.1166716119275138e-04 2.0927596490339411e-04  -3.3091383978878781e-03 7.7577636977513114e-04 1.9833947796233083e-04  -3.7126267468074641e-03 8.8579120001288237e-04 3.2522687214624359e-04  -1.1202611245389169e-03 3.3834008267952763e-04 3.6607939882529777e-04  -7.6271763762058556e-04 3.8253666505362713e-04 3.1887419117950443e-04  -1.3890964181758013e-03 2.7547129278450861e-04 3.7135278686001050e-04  1.4795773070994660e-03 -6.3170930759982543e-04 -3.1405641368615868e-04  -2.3897239729106482e-03 7.8513157171765239e-04 3.5695695156658238e-04  -3.2310209501770948e-03 8.9340831493567665e-04 3.9827476656182086e-04  -1.4229316378411484e-04 -1.5133488465264580e-04 -2.4809784066819447e-04  -1.4496118635771405e-03 2.6670699413594654e-04 -1.4089078079461184e-04  -1.0676494219157273e-03 2.9198474875695874e-04 -1.8086746336552000e-04  -2.4362903773297354e-03 6.4974145405930265e-04 3.2347014277334964e-05  -1.9606765417646702e-03 4.9190067337662039e-04 2.5808218167993620e-04  5.5547658931168480e-04 -1.6380256007926148e-04 -1.5301199917207368e-04  -1.7854764948911478e-03 6.6094466802226956e-04 3.6272202048415203e-04  -1.2170042950298882e-03 4.0406877374583709e-04 3.2220954081703222e-05  -1.5806442835234989e-03 5.1806827382359910e-04 1.4198068866468996e-04  -1.7045608623960640e-03 2.2212654981040053e-04 -8.3043955068203178e-05  -1.4782908707266140e-03 2.2280252545560820e-04 1.2184636597539071e-04  6.6509431388833804e-04 -4.5897469311591574e-05 2.1966529519840350e-04  -2.6717654646046213e-03 5.6334905992854280e-04 2.5062718093535980e-04  -3.1745468962121933e-03 8.0785365600172362e-04 3.5103665068223432e-04  -3.7176713950810183e-03 9.2991717940565770e-04 3.9568897430148882e-04  -3.6968335956502649e-03 9.4435010376694647e-04 4.1609270060323516e-04  -3.9000148667134036e-03 9.8447025917253943e-04 3.8553950582598403e-04  -2.9520122366195919e-03 8.2257461464367001e-04 2.2220304819662619e-04  -3.5766808214409106e-03 9.3852256860097697e-04 2.7212391291535874e-04  6.7061088383118291e-04 5.2640405936663641e-05 1.8899330710883905e-04  -1.1511962378381604e-03 2.3278713597155873e-04 -6.6521670046892804e-06  9.5975209807119431e-04 -4.8553299080622369e-04 -3.1270677544147427e-04  4.0315219836205753e-03 -1.0165602259576564e-03 -3.6146733981240253e-04  8.8136382791834523e-04 -3.0674720585134948e-04 1.3187763320348612e-04  1.8145502474350361e-03 -2.3316882819673259e-04 4.8926496872865916e-05  -2.6605857110151604e-03 6.5844149177051337e-04 -1.0771903537478346e-05  3.6947894642348701e-03 -9.5391604811964192e-04 -4.0598355502933077e-04  2.2364798742897838e-03 -7.5346886709581808e-04 -3.9624380504823007e-04  2.6850435817673815e-03 -8.4645079271924648e-04 -3.8752977611843938e-04  -2.8761908274336492e-03 8.5366765130600556e-04 4.3383359956242722e-04  -2.5438526498957458e-03 4.5541254444083972e-04 4.8578428771385586e-05  -3.2599442650262521e-03 7.2907162355011375e-04 1.3754538897951704e-04  5.5682246050208850e-04 -1.6142791965839998e-04 2.3431432244511158e-04  -1.5993673267530517e-03 3.5260752946205016e-04 2.9083885917009214e-04  -2.9732757212529151e-03 6.9784275511591289e-04 4.4035741291428886e-04  9.5500814543946260e-06 -2.8669603311197407e-04 -1.9216032257405913e-04  1.2079845764953014e-03 -5.3545794400492073e-05 7.8430316867003630e-05  3.3227609287114191e-03 -8.1159019940347512e-04 -2.1690240101209529e-04  3.6952251775138863e-03 -9.5394739706425194e-04 -4.1338429471331076e-04  3.1220078892880108e-03 -8.4966600057195211e-04 -2.8872535119384309e-04  -3.1827679041879654e-03 9.1646838414942986e-04 4.2065469316121871e-04  -2.6619496038909153e-04 7.4371445931987893e-05 1.2705929443547858e-04  2.2625046946720606e-03 -5.6273977676829230e-04 -2.7242149460999062e-04  -3.9379870503341565e-03 9.8209092481690591e-04 3.4842427993401879e-04  2.2129849991509611e-03 -4.9522574320634647e-04 6.3202984156066438e-05  9.2001026517358477e-04 -1.7074331636887034e-04 -3.4672805009934858e-04  -4.4892584226606579e-04 -1.5282695290862582e-04 -1.8582234123258145e-04  -3.5516154847484746e-03 8.8362191825563973e-04 2.2949371082251599e-04  3.9309837925418107e-03 -9.6046988609830859e-04 -2.7771262416871037e-04  -6.2610833264572206e-04 2.3607608891812083e-04 -1.4192898034484503e-04  3.8307909196866469e-03 -9.5315682762737585e-04 -3.0216080899619132e-04  -3.9979244326286759e-03 1.0194820167183057e-03 3.4048869277243746e-04  -1.4971587308883259e-03 6.1881060847442516e-04 3.1528680138574099e-04  -4.9740433826340655e-04 3.8374395739619962e-04 2.6723455518578329e-04  3.3716155427355177e-03 -9.3193042937823867e-04 -4.1263447662349094e-04  -2.2756423204903045e-03 6.1776890028713909e-04 -4.5706139703906178e-05  1.2760710533524077e-03 -2.2737543779086260e-04 -1.7976113658498157e-04  -2.5767943219595318e-03 6.9330974489045089e-04 3.0116229865497754e-04  -2.7172247771749592e-03 5.4429303101409901e-04 4.3702493547773244e-05  3.9390463321054819e-03 -9.7154638395004450e-04 -3.1126446154410963e-04  7.7659923992534771e-04 6.6151210768229175e-05 1.4830962194500429e-04  -3.8058600318839732e-03 1.0078432891294431e-03 3.5703302550497436e-04  -3.1399171917832172e-03 8.6776840085655193e-04 3.0359485083429643e-04  -2.4643265990840647e-03 5.1951740418957801e-04 -1.7612124976865686e-05  -2.4546903365829783e-03 8.0534921248729080e-04 3.8712823249824720e-04  -2.9187959565534334e-05 9.8972590727707998e-06 3.4860051356313414e-06  -1.6530369393136300e-03 3.1975335186337246e-04 2.9152464695286290e-04  3.0292070224975658e-03 -6.9201935043086151e-04 -3.4408701163983501e-04  -2.0285658263854414e-03 5.9205991409107478e-04 1.3702430583363085e-05  2.8710930955037459e-03 -7.8281596661782253e-04 -1.7944269877156780e-04  -1.9265870745920975e-03 5.0314675433631227e-04 1.9923276372214171e-04  -3.3855362383150458e-03 8.3821266609155438e-04 2.9315619799565474e-04  -3.4030069829317829e-05 1.1626623755696650e-04 -1.4790519395164271e-04  2.7654102535515980e-03 -7.2606452200639515e-04 -1.3782509629421016e-04  -2.0016402445321964e-03 4.2728168843872378e-04 1.6913232006233314e-04  1.2985149129729780e-03 -2.2057305364623549e-04 -2.9221426165259722e-04  -7.3913173432879029e-05 -8.9073277067546483e-05 1.9865830737968770e-04  1.3844905546733831e-03 -4.0397851051073610e-04 6.1263637757658952e-05  1.3476793507673354e-03 -2.2124236391342624e-04 -1.4928232833384875e-04  7.4556820836573092e-05 -1.3379236429500793e-04 1.1861364004275686e-04  1.4859903392403665e-03 -4.0249636576046566e-04 -1.5658784664540171e-04  -2.8149293948854398e-03 7.7710361582155826e-04 1.3577638223754782e-04  -2.9671822822348736e-03 6.7476089939690900e-04 3.8876740298856275e-04  3.3164053155465951e-03 -8.1270068940037508e-04 -3.6102286853941277e-04  -1.0555255116920163e-03 3.5201842209856070e-04 -7.0273643770267993e-05  -2.2979716852100093e-04 7.5528184254923425e-05 -1.8475836188037469e-04  2.3105252130820515e-03 -5.1179967345939801e-04 -3.0746777429789551e-04  1.9389235356962534e-03 -4.8175282237523524e-04 -3.4000329827597609e-04  -3.4493213490742183e-03 8.9414406411535759e-04 2.0691491958200052e-04  3.6980838230242776e-03 -9.3015111369223428e-04 -2.9221478453553761e-04  -1.4901884913402412e-03 4.8742808069926567e-04 3.7141642652776693e-05  -3.2526055448007436e-03 7.5507375981233576e-04 3.6016373709127310e-04  3.5252667698959872e-03 -8.4084781229709182e-04 -3.1645048508301506e-04  3.0917933496171601e-03 -8.0089158769537845e-04 -1.3363331964611920e-04  -3.5714972012796538e-03 9.3581533272851368e-04 3.0931158167679104e-04  1.3724680227884874e-03 -4.0139819383224102e-04 1.7947757797188802e-05  -3.9908529458447577e-04 9.7141695217669021e-05 2.4451133600282614e-04  -3.1036264048637271e-04 9.4262347822624503e-05 2.0113469438824038e-04  2.1804743159515136e-03 -5.9106107499097809e-04 -5.3671452833616031e-05  -3.3739453595549008e-03 8.7525619047008050e-04 1.6271525022356373e-04  2.0516299703581221e-03 -5.5425636494464594e-04 2.9197865943750657e-05  -1.7501497968692760e-03 4.2819239354001718e-04 -1.9681264428648029e-05  -1.9765900574103307e-03 4.0451715466541623e-04 3.4379715856625481e-04  2.9569714791228773e-03 -7.1732175539595188e-04 -4.0985693544196537e-04  2.3041797561951624e-05 1.1821506906400101e-04 -1.3887111291498969e-04  1.4226035792507174e-03 -2.4861088905587495e-04 -1.8883686137348478e-04  </DataArray> 
</PointData> 
</Piece>
</UnstructuredGrid>
</VTKFile>