<?xml version="1.0"?>
<VTKFile type="UnstructuredGrid"  version="0.1"  >
<UnstructuredGrid>
<Piece  NumberOfPoints="201" NumberOfCells="657">
<Points>
<DataArray  type="Float64"  NumberOfComponents="3"  format="ascii">-120.0813270652501 -168.0054388824334 138.4766570134129  78.76902219521413 173.786829081759 -130.7232612685943  4232.64752836126 -206.2765094633175 -635.5196082078593  7047.6161413768 -465.6654670788956 -999.8300633115359  8453.545706503031 -612.0394551785225 -1177.613874222012  9123.347766398241 -679.6915844152365 -1121.760759662857  9332.263154857821 -712.5804908661554 -939.3632803372295  9133.204109311127 -731.326964973573 -767.4026187160259  8447.130205942636 -738.6215246509699 -673.3964021456309  6973.8811379615 -706.382926683077 -600.3145566608689  4091.278071428398 -501.7820454742179 -338.3922718621603  5171.882551903618 -3037.866777751297 38.63483628154898  4747.12848808488 1673.079877484183 -1055.328523467284  9136.957963756944 -2545.737350688134 -567.610016726906  7588.017082268221 -2998.239736149647 41.95010242964129  8407.552986115028 1283.369837044464 -1186.347212433415  8382.93470763685 1333.685472967034 -1622.777717879537  5226.832677511225 2117.837931978989 -1507.906821864311  2165.638956857471 -3009.877533655223 705.3514058937633  7661.990213941055 -2679.308061929613 -485.7977838432456  5685.682505784273 -4702.17070415568 368.377691460146  7462.816300644135 -4375.180907041104 -8.107089108229683  5362.109914759454 -5873.185265765503 666.1523842991496  6903.048162049341 -5396.675586662819 384.3306679366078  4622.525772302601 -6558.412491945377 995.4311397598542  6173.748715614021 -5970.467073469189 770.9284434729038  3571.795414761688 -6874.557434031942 1364.919684408981  4982.363298573665 -6272.450905634178 1184.363607239039  2177.457418043381 -6830.818478870011 1708.289653741271  3576.003692801214 -6125.930212247702 1447.518373159677  384.3084306103521 -6306.489875398068 1923.538092723786  7184.705564800009 -5116.353724549367 565.6812884243786  7315.718893687464 1491.249591907052 -1199.769833924912  6727.580562915692 3311.562854263752 -1560.860549609599  7707.309022312385 2882.61511914753 -1561.286360854784  1690.097463977608 -5408.789548432884 1507.673649511975  4954.73688396667 -4883.429070153924 915.7970024266009  4996.37352657633 3647.627401061757 -1546.684339758134  4217.340644659315 5119.488175986138 -1757.117703819108  9142.3909114615 -2524.404652084997 -393.1466768772872  8203.279347444208 -4360.023586828368 96.72795295472896  8761.431529936464 -2602.76390773247 -634.9465002867124  1845.604131598636 2690.103122647564 -1172.392593033413  7267.896290686626 1599.013435750856 -1644.786780088515  6662.131403968276 3359.714237508501 -1990.687838427691  2650.67745645522 -6721.430462443722 1275.237299898661  -889.6878681058108 -6645.859825538659 2048.621103377893  2940.230163702759 -4925.004209456772 890.4978429617333  7637.153350813177 2959.670227126631 -1824.88647895531  5582.452787474955 4735.977250380804 -2079.154351621275  4137.806171186921 5083.86535499054 -2153.008856057188  2872.28224977857 6103.608281484452 -2116.648271032777  1070.253491195231 6215.825939010431 -2051.496688732896  -165.1330409299325 6826.075865932929 -1899.034475394775  -2164.918822491274 6581.847942986936 -1704.61201787346  -3097.414236019852 6884.766316211193 -1499.26911630473  -5014.842158166461 6236.503671308868 -1190.264148093426  -1117.243204993954 7037.111219402977 -1655.130601916442  -2865.966524100807 -5674.431210182823 2149.300732712653  -3784.545041299207 -5787.768261236308 2127.410369799775  -5611.85294455071 6282.37756268979 -951.8319020796247  -7183.145967215014 5223.580842977302 -591.5924740250864  -7484.73409854277 5128.144724231199 -359.0074373194659  -8623.222066386252 3676.697559481197 29.53679649803626  -8706.714763808883 3508.86584878107 269.2935394338523  -8086.017943749724 3690.186495954824 -170.749559232373  -7432.132655908136 4887.617537924052 -155.2058017690898  -9056.591163818821 1998.661804662918 436.8048575518562  -8452.949183869236 3085.385713516566 475.678949878344  -8385.695519730069 1622.309447581181 425.3082015500274  -8752.894689569284 -248.4577984843901 959.0674754177926  -6925.957922330884 4435.975361791378 -87.56600114516651  -1555.838772731886 -3876.668920424982 1492.965989099323  -5656.196065431689 -4436.986652584224 2111.469429570304  -7719.949077956573 -724.7432651010547 1031.312287890483  -7603.354392772274 -2447.400687640302 1437.820187723256  -9152.43070228344 1488.421251726314 892.3707686277969  -4074.679274319768 5701.715432675301 -1272.403822576016  -7706.562789028912 2289.103516119247 603.0417729824135  1898.620021874934 5321.223791545009 -1599.583058335368  -8565.516377802143 -1721.333197398196 1388.701639612488  -6908.109597413601 1273.078509592409 428.371902125978  -5724.540869264619 3754.199311665471 -143.0410593638444  -5915.971923074167 -3090.979192375263 1490.045552890344  -5541.415102809492 -4431.618205752803 1716.681573117421  -5474.563760228506 5908.887688254867 -663.2656955946276  -1850.72973032014 -6609.072874431738 1979.681690531087  -6087.553760633306 938.5322789248517 702.7409684390391  -7763.93886861297 -228.7154695980679 1323.350349568145  -3262.186367914616 -5007.806337504365 1668.943543554479  -2876.092990868231 -5948.450182435923 1793.59449505775  -3275.551468374682 -3460.129532207196 1352.367270833787  4352.103889196046 5640.379839283051 -2005.94351554731  -6124.990360108702 -4502.071832576999 2009.912447141393  -7697.218068984484 -2847.069135071798 1871.062207387643  1236.65785275264 6320.688487899142 -1688.147066991904  -1321.533969086092 6195.45930688381 -1361.395466204274  -798.2440717735846 5119.415217943249 -1231.690442179709  -3850.462915877717 2597.982526081583 -127.9599387932762  -4698.751986617396 -4102.812186308121 2008.614127423094  2209.625919427891 5281.666063215069 -2008.216425633054  -4933.381242497942 -5248.755001921329 1866.308065425942  -1243.209282521902 4783.540411382131 -1383.050783731323  -2320.893798189349 2534.073522045245 -532.5779885248552  -1748.093975009357 6848.487390441262 -1430.190201607913  -2840.736475976562 -1520.039555987978 958.1184656763896  -169.3855548297065 -6298.891647971477 1580.400226839241  -5442.97796240956 -1911.16917755233 1477.958615298389  -7164.492458088987 -2559.135718375413 1869.940885865223  -8553.927530696255 -781.2427135105212 1516.242805027569  -8857.145927837963 -1083.869994264036 1437.560340522034  -9252.608936685823 477.7679626537866 937.433462735616  -4855.199021846791 4274.338787794572 -744.0115948190573  -6591.689358415912 4391.463529677965 -567.7842508105625  -252.8926245691833 -6770.04008891213 1678.907070763538  -865.5622006537445 6013.57844579343 -1789.115687066881  3349.498958518611 5959.594363054411 -1857.849497013642  8701.216985194753 -2590.561551580098 -215.8923472928239  968.4787693101799 -2773.326822425501 620.1421895543432  2099.061442954198 -7026.952825482181 1471.958207977889  -3959.248628939508 5498.101175497724 -835.4966804315446  8866.373479066589 1078.143635759569 -1434.757493957402  5752.60276953326 4645.541554080575 -1795.805701839202  6750.71359035786 4007.658891009365 -1845.876437271931  -7033.850536255624 -3653.295312874246 1695.479716781543  -3754.203989223528 6854.234877512286 -1238.602882978072  -5808.752502454355 6143.257264475903 -736.7992293804136  -125.5944681178086 -5217.285748780913 1390.689434074083  -3000.187719688544 -737.4840764457797 570.3188971413229  -5883.890063046831 -1028.511038219704 988.5692084608992  1622.373751600504 6649.807397562981 -1945.57030262478  827.3356482564346 -7037.7101763077 1778.443028301135  6035.01424028117 -5303.923086016653 880.2675517481844  8873.487744543838 1087.96245468356 -1261.54196619681  5485.800945667399 -2985.912432216734 267.8643327202678  -7724.81661946349 -3116.299417065196 1755.871484910746  -1618.920846972271 -5390.318491482962 1958.594929719842  5168.903700101727 3622.406809561533 -1940.010538949234  -8686.274988796589 1221.170375854941 1023.647530289789  2986.625215405337 -6086.844669080931 1107.288044050467  2579.197728387458 4025.719071161912 -1418.366318818963  756.5587732623903 6752.474742375072 -1748.583407201772  -6638.598439411212 5213.08092968548 -753.4079306080226  8302.350852668995 -3994.677458085061 -154.6956496968063  -527.6770486960552 2506.667523207069 -604.1615817333129  7810.938243423376 -4093.746507861373 296.1046485095291  -9167.453945804746 2364.208051277235 500.2150769007708  -4417.804096789633 -5627.153034450253 1992.940598824565  -2485.064072691351 -6373.449485297619 1885.377261519281  8199.785741372725 2403.257907871518 -1596.547385800679  -3217.690594001975 4567.868833871247 -750.7057655025594  3125.440679269745 3854.579691640105 -1730.338851783169  -4454.913137436342 1271.042915926973 155.5700806006227  -4171.445539967509 6584.862050913192 -1028.051894898927  8397.512358340438 -3816.935336020739 81.73418613603371  -72.04041332003928 -6966.790465079348 1763.852962510662  -7328.715617798717 2857.106226756252 -15.77938272319035  -5519.202257870736 2634.745467603306 -149.2776314968918  -3495.662008582791 6323.754420174981 -1057.250240100284  -6283.670956271246 -4442.092488872981 1878.503661357324  -11.97287379346722 2.961549049331953 3.353666786937146  -3703.94006867454 -3287.32678033655 1496.96601781296  5906.117047400194 921.7728629073852 -1102.993389824827  -2832.329740267326 4048.386177892326 -775.5147017495796  4769.599403243119 -3139.65930529379 296.5387068978065  -3240.03827357439 798.5507664125904 185.0868410694485  -6238.679705379729 1217.123193662752 513.4728901833302  849.8126217790625 4287.587245083024 -1425.225272068433  4583.746290046364 -2511.447255804673 70.6997374253047  -3561.881489462296 -235.6304532708937 622.551275225085  2951.499632353742 2997.640375984391 -1274.128997062017  -869.6791301791609 -3649.277196501391 1171.544472747713  1452.701378026612 -5177.994633336689 1319.503264002501  2634.330100058719 1410.199572855095 -846.7469449610742  -690.783
[...]
<PointData  Vectors="Coriolis"> 
<DataArray  type="Float64"  Name="Coriolis"  NumberOfComponents="3" format="ascii">-6.5844223820053987e-08 6.1889912421888363e-08 -1.0365081018247599e-08  7.4595433106615557e-08 -3.5911679868816641e-08 2.9154610894818245e-10  -1.3781952377539055e-07 -1.8881132270050733e-06 6.5379670864320581e-07  -2.6969914510818967e-07 -2.9057556673596011e-06 1.0152339305409645e-06  -3.5185833127970696e-07 -3.0867132242222171e-06 1.0887376652836480e-06  -3.9922750799559212e-07 -3.0830456535543855e-06 1.0949593694908067e-06  -4.2491031738297742e-07 -3.0821712935453684e-06 1.0987056807625914e-06  -4.2584889093311120e-07 -3.1037376383890791e-06 1.1060734938338857e-06  -4.0718876817944093e-07 -3.1059091865509058e-06 1.1038659002915554e-06  -3.6740970592997274e-07 -2.8726076267681231e-06 1.0195028536409630e-06  -2.5383602735391439e-07 -1.8245380588423802e-06 6.5075782547308938e-07  -1.0857705761233276e-06 -2.1741740511611822e-06 8.9864784309926758e-07  5.0603292240638205e-07 -2.0479059588527531e-06 6.0603754667323029e-07  -7.8501480620847771e-07 -3.1419417574725678e-06 1.1753485401025034e-06  -9.8895581882046831e-07 -2.9108280271337578e-06 1.1300468960401102e-06  4.6225020660853152e-08 -2.9143227471829348e-06 9.6841790390016579e-07  5.8991620470294141e-08 -2.9055449713806800e-06 9.6347143298237176e-07  5.9690458339205434e-07 -2.1697542031628353e-06 6.3254013620087608e-07  -1.1517482147032357e-06 -9.6686535466393249e-07 5.0482842843928094e-07  -8.8381548769328077e-07 -2.9559431251605733e-06 1.1286159779669253e-06  -1.4577352066791481e-06 -2.2386246687006290e-06 9.7872277317109681e-07  -1.2339826387632212e-06 -2.7336391398983409e-06 1.1092601867423561e-06  -1.5379961882751077e-06 -2.0042928357225115e-06 9.1289304636682504e-07  -1.3450533595669322e-06 -2.4312247356898255e-06 1.0254823942240386e-06  -1.5663748540703357e-06 -1.7114121741455642e-06 8.1930239221354032e-07  -1.4279509521557635e-06 -2.1718174730840124e-06 9.5167230194195054e-07  -1.6061919920211351e-06 -1.3533231893367824e-06 7.0567949704112020e-07  -1.5441197562337551e-06 -1.8208521147346134e-06 8.5244186807884302e-07  -1.6575828646458994e-06 -8.9487601198834707e-07 5.6027779112870366e-07  -1.6800113121228426e-06 -1.4066429990653567e-06 7.3513974863486669e-07  -1.6494324095924161e-06 -2.5620000186783934e-07 3.4517334577394483e-07  -1.3158386563038790e-06 -2.5293258737697334e-06 1.0537312359190939e-06  2.2050786662518789e-07 -2.8102887694430768e-06 9.0617951090512077e-07  6.0804737042133911e-07 -2.3771082019816905e-06 7.0020789880062226e-07  3.7171212246577638e-07 -2.5607087060521666e-06 7.9884315559939972e-07  -1.7067311978863779e-06 -7.3847112104729743e-07 5.1564429437796351e-07  -1.5579506557061292e-06 -1.9885122199260002e-06 9.1074801020729089e-07  9.3445755171425214e-07 -1.9231535263655970e-06 4.9689489114078837e-07  1.1652458372202180e-06 -1.4556858808286859e-06 3.0409596501783190e-07  -7.9390063381821424e-07 -3.1348704803833124e-06 1.1743785844210984e-06  -1.1422333571213309e-06 -2.8395327707910116e-06 1.1302833033412676e-06  -8.0799688686500038e-07 -3.1490576704082483e-06 1.1813451853297547e-06  9.8549988963673272e-07 -8.0348617959051766e-07 1.1401367594626788e-07  2.7042293916868929e-07 -2.7839866450843845e-06 8.8952385438651791e-07  6.1347491205066356e-07 -2.3226964194816763e-06 6.8113778248189872e-07  -1.6899041885544168e-06 -1.0811871017818019e-06 6.2773602491871370e-07  -1.5120511240914980e-06 1.7856003346818658e-07 1.7801438351048712e-07  -1.6178349146576074e-06 -1.2682424362197555e-06 6.7902630865230782e-07  3.9293666022016666e-07 -2.5195866013304064e-06 7.8173796293344040e-07  8.9011229652985054e-07 -1.8388954676761735e-06 4.7566010567455610e-07  1.1612828756644643e-06 -1.4419785571830093e-06 3.0013012346194313e-07  1.2970761259765343e-06 -8.8913959890805294e-07 9.3689205113115257e-08  1.4844556683832202e-06 -2.7311930359991327e-07 -1.4201700581741383e-07  1.5117403272240454e-06 2.2642010267767417e-07 -3.1354900363187555e-07  1.6406739957848588e-06 9.4283926641357064e-07 -5.7367623843920162e-07  1.5970404533417016e-06 1.2545488193274682e-06 -6.7117154935145149e-07  1.5728763537508258e-06 1.8992582068306538e-06 -8.8321392379045821e-07  1.5551573525101612e-06 5.8184989498136986e-07 -4.3937154975946134e-07  -1.3209771512387455e-06 9.6013921225426115e-07 -1.1370037620228496e-07  -1.1626554045222016e-06 1.2022438644902320e-06 -2.1965337592803907e-07  1.5245250825443825e-06 2.0561109474069617e-06 -9.2812270728338043e-07  1.3962215615331973e-06 2.5369864764583156e-06 -1.0689374495511870e-06  1.3392054705123799e-06 2.5982589363653853e-06 -1.0804841805302353e-06  1.0402591991447767e-06 2.9415076839370829e-06 -1.1483864427232110e-06  9.9717247968821699e-07 2.9363239780814228e-06 -1.1398749012384870e-06  1.1114444394834218e-06 2.8796869096764401e-06 -1.1388844700524642e-06  1.3275330187438041e-06 2.6530033536002792e-06 -1.0969764082473595e-06  6.7909429418540920e-07 3.0530713872267356e-06 -1.1289378654243988e-06  9.3434838129535928e-07 2.9685782529754255e-06 -1.1407932164147011e-06  6.1014651524033496e-07 3.0656572595850366e-06 -1.1223083383171452e-06  1.2151575547116173e-07 3.0491970890281341e-06 -1.0399525108080094e-06  1.3479514909839576e-06 2.6483617620419348e-06 -1.0986335837523172e-06  -1.3034664135547756e-06 6.7005555034959417e-07 -1.9336972822734461e-08  -8.8045929009597339e-07 1.9656504123525408e-06 -5.1961454759520233e-07  -6.6007899563384187e-08 2.9658275946851505e-06 -9.8255005815709435e-07  -4.2788173786583591e-07 2.7468151265626151e-06 -8.5231623137376439e-07  5.2623835195136542e-07 3.0508793375780354e-06 -1.1041649098116285e-06  1.6351886614514193e-06 1.6403792929537782e-06 -8.0634334742677376e-07  7.9067951701535515e-07 2.9595315633202848e-06 -1.1151702096623691e-06  1.4594154202328551e-06 -6.5435842695915512e-07 -1.0443787631060462e-08  -1.8657008301936436e-07 2.9081757695376199e-06 -9.4428841495837258e-07  5.0722847250284263e-07 2.8274602551267186e-06 -1.0263767137263646e-06  1.3159817012049489e-06 2.3553047265427246e-06 -9.9549310700729965e-07  -7.5454410850210245e-07 2.2896500829196265e-06 -6.4788876216302734e-07  -9.0879523876389335e-07 1.9512293801940772e-06 -5.1033023527376697e-07  1.5726087935432916e-06 2.0798528306005933e-06 -9.4363320807785665e-07  -1.3955319213805250e-06 4.9560758380395142e-07 5.3545342882169023e-08  3.8229872964640972e-07 2.5914200101667082e-06 -9.2770545454226754e-07  5.1841359681412819e-08 3.0153526881631261e-06 -1.0176642975117097e-06  -1.2842006659805598e-06 1.1912250917695536e-06 -1.9684943019885593e-07  -1.3248948358063019e-06 9.1745651340170804e-07 -9.8794495070590866e-08  -1.0957274702123978e-06 1.3758432684388114e-06 -2.8829830945032280e-07  1.1161172504112767e-06 -1.4092959573083232e-06 2.9629132760331601e-07  -7.9065719920281279e-07 2.0528984179099238e-06 -5.6294718663109217e-07  -4.5447894939074263e-07 2.6785211838543947e-06 -8.2526922560522899e-07  1.4918454225430130e-06 -3.1409906392540512e-07 -1.2945953060296105e-07  1.6580511644927220e-06 6.4545834809742149e-07 -4.7684877712471189e-07  1.5921717834591022e-06 4.0811471703276147e-07 -3.8702778463429453e-07  1.0049086162516453e-06 1.6903221142548871e-06 -7.2394196052153949e-07  -1.0398772684978998e-06 1.7847239649035463e-06 -4.3397102876242032e-07  1.4376712148896472e-06 -7.7554731677072410e-07 3.3548729363241743e-08  -1.0045808625778900e-06 1.6203763789765670e-06 -3.8449995283975415e-07  1.5815464179344147e-06 5.7475511456409832e-07 -4.4114639366505241e-07  9.9947785033223346e-07 1.0358662131798537e-06 -5.0398227301682338e-07  1.6243835963916872e-06 8.1174901840300021e-07 -5.2722654040549642e-07  -5.8349695380417961e-07 1.2891355181759071e-06 -3.3982594308680758e-07  -1.6542112662685723e-06 -6.1209821138535762e-08 2.8064404052896312e-07  -5.5871785809123998e-07 2.2653901309369043e-06 -6.7056361770522474e-07  -5.1870638018301699e-07 2.6678848654230722e-06 -8.1160748125157262e-07  -2.1445195733241953e-08 2.9834468258763340e-06 -9.9545701775724055e-07  -4.8886382386959413e-08 2.9564841308631581e-06 -9.8211459184236556e-07  3.0579429374864101e-07 3.0450571667279322e-06 -1.0675472957463428e-06  1.4596259812323078e-06 2.0136277752049533e-06 -9.0369330807774703e-07  1.3867645051248204e-06 2.5462909096883604e-06 -1.0705652096684668e-06  -1.5891244739000190e-06 -5.6250431546755803e-08 2.6874772940178488e-07  1.6221388621914784e-06 4.4944080749997665e-07 -4.0557617627490662e-07  1.2561775045341920e-06 -1.0646590693076379e-06 1.5888342663802639e-07  -8.2023634420706601e-07 -3.1202424771450222e-06 1.1736229860263118e-06  -1.0607403564161699e-06 -4.2968615115994416e-07 3.1067347695448101e-07  -1.6400133877066033e-06 -8.7790260151325941e-07 5.5183216927378971e-07  1.6521515722549291e-06 1.6456704466371565e-06 -8.1078246844191156e-07  -4.4217158258334384e-08 -2.9263703155148216e-06 9.8667481598758984e-07  8.6732813794189825e-07 -1.9058561028839829e-06 5.0166106830060947e-07  6.3826666853237704e-07 -2.1937051387136613e-06 6.3405382231321530e-07  -6.2226086566570127e-07 2.4233291363547801e-06 -7.1344692518361143e-07  1.5963915021972123e-06 1.4727756903577776e-06 -7.4412977220005489e-07  1.5167560695331664e-06 2.1244190776878920e-06 -9.4976981623855379e-07  -1.6073147506152383e-06 -8.5427205009687652e-09 2.5563635777060670e-07  -2.6221342936851186e-07 1.3448290099994708e-06 -4.0899864410702402e-07  -2.7052936024951228e-07 2.4841465053496714e-06 -7.8912349082310889e-07  1.3896215675194582e-06 -4.1252176218113781e-07 -8.0432186676876603e-08  -1.5878033198644144e-06 -4.3537917203569803e-07 3.9546865305385400e-07  -1.4804910943142369e-06 -2.2362264312243144e-06 9.8149859880134679e-07  -4.3909595989051998e-08 -2.9303902559756823e-06 9.8797228466227828e-07  -1.0750525701476001e-06 -2.2685937853553104e-06 9.2857309169243800e-07  -4.6869361809412992e-07 2.6421628495777778e-06 -8.1086131367793859e-07  -1.4927182749030067e-06 5.6851764433343133e-07 4.4419879760631061e-08  9.1035149830816957e-07 -1.9728458947716184e-06 5.1732249169190136e-07  4.5873786193823448e-07 3.0732021704105040e-06 -1.1010228341452043e-06  -1.7290042519164822e-06 -1.2345617231769513e-06 6.8523350915368875e-07  1.2688623701965492e-06 -1.0324243651139205e-06 1.4609665320586455e-07  1.4720988891314175e-06 -9.8775429144437505e-08 -1.9844237274286256e-07  1.4649610052207116e-06 2.4586133316667414e-06 -1.0535092594236187e-06  -1.0827105885243372e-06 -2.9177964743880194e-06 1.1471243253706979e-06  9.5645348026822642e-07 2.4940539706718484e-07 -2.3391639089312215e-07  -1.1740652173867748e-06 -2.8144945735267872e-06 1.1269068297813848e-06  7.4162314885591920e-07 3.0193576068047597e-06 -1.1274844898101525e-06  -1.0714531399892095e-06 1.4027995570254374e-06 -3.0114055097300283e-07  -1.3363306681600989e-06 7.2626834761703194e-07 -3.2988045205388346e-08  2.2793992519718854e-07 -2.6904451066615861e-06 8.6488818053646744e-07  1.5343818759607298e-06 1.4009147914147950e-06 -7.1031940634231088e-07  1.1811998782319223e-06 -1.2677489279885293e-06 2.3866742866957022e-07  5.5093576660795666e-07 1.9605472706418391e-06 -7.4301617289285756e-07  1.6201590578631424e-06 1.6319370027019315e-06 -8.0115329980085234e-07  -1.0607841253985942e-06 -2.9416131328062561e-06 1.1516496238377832e-06  -1.5566835804103318e-06 -1.2917841731838269e-07 2.8806146833190672e-07  1.0193788990814646e-06 2.8811852690909547e-06 -1.1249073057992081e-06  1.0096422298845946e-06 2.3125379829241983e-06 -9.3299835328518621e-07  1.6649260161149113e-06 1.4324990537006099e-06 -7.4142370214195776e-07  -7.6532180723826054e-07 2.1023902689484425e-06 -5.8350098931887020e-07  3.9532341308847536e-09 6.1020338999631382e-09 -2.6646131558738605e-09  -1.0312528650395808e-06 1.5595571956954046e-06 -3.5994366334899375e-07  2.1305284243193077e-07 -2.5097034957328664e-06 8.0671884358824246e-07  1.4356356724598858e-06 1.2556327534547839e-06 -6.4615091829900358e-07  -1.1525369089915950e-06 -2.0293514226602848e-06 8.6066269409488321e-07  3.6081773219757875e-07 1.4600118506359473e-06 -5.4554252756032575e-07  4.9868174957501960e-07 2.6434718487285183e-06 -9.6343503418602748e-07  1.4338239596365947e-06 -3.2188715704384077e-07 -1.1772733418768712e-07  -9.5346141694333717e-07 -1.9924407265987616e-06 8.1699749136491320e-07  -6.8718900102924472e-08 1.6060672862903043e-06 -5.2688889021214991e-07  1.0031009430225875e-06 -1.2660080626035862e-06 2.6609355215022367e-07  -1.2634128371879891e-06 3.6829664921815440e-07 7.5389962288866541e-08  -1.6714751021361365e-06 -6.6072442156742181e-07 4.8407084543901269e-07  5.1651647730234068e-07 -1.1857763187333319e-06 3.1575603335128608e-07  -1.3963739612279696e-06 2.7618584366686824e-07 1.2713807908063585e-07  -3.7671950726019361e-07 -1.1193462506404561e-06 4.3399173688237898e-07  1.4833313401849497e-06 1.8882553089077206e-06 -8.6544785123606294e-07  -3.8382300242528846e-07 2.4959128201590758e-06 -7.7524547678027840e-07  -2.4019269082864497e-07 -2.6580351272816120e-06 9.2765908078009440e-07  1.0406087650326366e-06 5.7694786880544970e-07 -3.5680927993093617e-07  1.5367304559077342e-06 -2.1747342398626884e-07 -1.6886777600458767e-07  7.9287638448803270e-07 -2.0077016047395078e-06 5.4746672052054508e-07  1.0370908711315324e-06 -1.7562315861032500e-06 4.2487025753760588e-07  9.6572503519628400e-07 2.5718715184445133e-06 -1.0129140627817772e-06  -7.8981554742943332e-07 -2.8393446900758355e-06 1.0747969143081926e-06  1.4226355942512404e-06 8.3895034253604491e-07 -5.0460513669727689e-07  -3.0759829528821851e-07 2.7057194568449717e-06 -8.5747431591247381e-07  -1.8816112695391627e-07 -2.8491961916969442e-06 9.8347517903672422e-07  -1.4740587236282116e-06 -2.0848861223032484e-06 9.2981970800552488e-07  8.6574867787050370e-07 2.7191297894021301e-06 -1.0464918262695043e-06  -8.2401293244321864e-07 -8.8894905560652497e-07 4.2720109925986148e-07  -1.4643451489400433e-06 6.7735115221376656e-07 3.5213217544875381e-09  -1.4844815905530469e-06 6.0914403388449476e-07 2.9523198599896734e-08  -1.6956576186242314e-06 -1.2883456259808775e-06 6.9799554889121490e-07  1.4524512900649655e-06 2.3428590237751137e-06 -1.0127884622560692e-06  -1.6679421031173811e-06 -1.1831258043985135e-06 6.5841023860853917e-07  1.6740660999571097e-06 9.1567949909230048e-07 -5.6983485708354323e-07  -6.6799776692920080e-07 1.7395329013793732e-06 -4.7732557885815809e-07  5.0165275992971908e-07 -2.4848226724384403e-06 7.5300195869073095e-07  1.0818766800034598e-06 -2.7931471377767019e-07 -7.6630760394841480e-08  5.2225439422030756e-07 -1.2513227347525272e-06 3.3679796946881219e-07  </DataArray> 
</PointData> 
</Piece>
</UnstructuredGrid>
</VTKFile>