<?xml version="1.0"?>
<VTKFile type="UnstructuredGrid"  version="0.1"  >
<UnstructuredGrid>
<Piece  NumberOfPoints="201" NumberOfCells="657">
<Points>
<DataArray  type="Float64"  NumberOfComponents="3"  format="ascii">-1.158645118470946 0.2412821116016423 235.1661606665687  -0.6359693011400119 -0.2053743184574011 -235.5686226590116  781.5700743818023 0.2403818413580123 -230.258491671024  1440.731764589481 0.06307843466604503 -208.8013054524041  1912.646637498822 -0.3443623817937957 -164.297666564268  2191.350202838828 -0.2466166277038104 -90.34595146477218  2283.629455290159 -0.06288112314002124 0.2569186435625986  2191.548366399881 -0.1233977103097604 90.66327228132032  1912.621246308694 -0.2514481149841661 164.4303003153892  1440.673702300918 0.2385313392263232 209.1173375094288  781.690222025323 0.1800305541052559 230.3382628960052  972.2173142448129 -434.5306878713754 -215.4150065253612  971.3639731752984 337.2101609374266 219.7518060397121  2177.694609798606 -416.4179192909366 -43.41139590741108  1638.720115689437 -436.3795431663503 179.0046006208558  2010.342957304786 415.5311007568973 120.2201237339387  2003.618831730601 415.7108818928624 -121.7432432859665  1082.275989496066 390.7187666066129 -214.4003070294553  381.5002154475382 -382.173269504733 226.3524283059799  1631.130994678767 -401.9949382367326 -181.9293230291409  1140.7541810116 -770.8219248315938 -179.7819798894099  1646.137257009854 -776.7040017818997 -131.6357640412382  1126.081082867202 -1085.085659168865 -120.9939633106899  1557.781840834539 -1040.644897041338 -62.29610626459748  976.6934693706648 -1288.581176946118 -50.6001817319797  1384.158884866863 -1175.962496097855 13.43697716288759  727.3249518730856 -1367.189511917141 22.8882412238269  1067.682648878858 -1198.650046266796 88.07244167773827  385.5378134898678 -1319.485150942818 90.18961357333177  702.7279448160489 -1078.845238578984 148.6058185210791  -27.19082841143563 -1149.338438072764 146.4806604379837  1632.447075891696 -965.7772578303661 78.03862372069702  1632.271627474698 402.2986588711896 182.3581014488877  1615.085624789316 780.4894969265284 136.0666454392536  1914.275613924316 763.5619127667237 64.48377046013341  271.4150196379054 -851.1802753180514 192.4144715232661  987.1506533972397 -758.120160756928 187.8068120866753  1144.675601424803 726.8753237703353 185.0150905244518  1069.76697087178 1065.000171951372 131.0301202716567  2182.25810936758 -406.315900096801 43.66706957269093  1918.390075275815 -825.251144574439 5.14680389420174  2015.923483549451 -416.2566967901994 -118.4917035067626  380.5909967727691 382.6078576694783 -226.2160328593485  1618.07816497921 391.242054894473 -184.0646079080005  1603.705974664201 776.0105095508983 -138.3045990532131  480.5557255276448 -1281.129409326316 -101.521277238554  -336.428336389436 -1334.555729909416 85.25058554878275  498.292434604728 -774.447196813819 -197.8119191554608  1902.014350971353 771.8103257084416 -66.18292120456384  1424.965965558319 1086.615549089294 -75.85473447645546  1037.798622674156 1036.379725706686 -140.1150998394646  800.9835803403605 1285.77538314195 -77.96197501856089  361.7674115465128 1192.990633586395 -132.3633083967626  102.2823317124616 1377.742670663585 -69.41433458744598  -369.9152477452054 1228.292350383679 -122.4006471659199  -596.5004054651578 1361.979611907876 -53.1328123429078  -1060.933036530379 1176.870371167687 -98.08353312161499  -115.5162825189119 1434.445987406207 4.713685927309921  -753.5241491412678 -1117.15989792643 138.1494157041228  -1012.980105234368 -1250.296291850167 70.57019420509329  -1227.675401065321 1233.508345836213 -27.0754840423019  -1629.899248539531 982.3344162027606 -71.14911734249709  -1723.565950522659 986.3340274886973 6.243940304437149  -2030.781008996348 662.6995178619928 -46.69530298499554  -2057.477594855784 630.1570951392033 43.06591869870169  -1836.986312625779 618.7174046643968 -128.2219616080871  -1676.14522497134 908.6890712764263 89.35594721560241  -2160.523713655093 276.5958344589146 -85.74049569147707  -1933.570716995639 512.6957389107687 124.4579832132327  -1889.774468543886 173.71209385599 -164.5110353300605  -2083.373639029791 -199.4996643405963 -121.4818589089527  -1466.067767480922 750.4733526837847 158.9782015009663  -347.053453938122 -588.3636457108462 214.6809673719817  -1402.61256984757 -979.4533773365382 118.5478163907255  -1718.431299527999 -263.4683935177798 -182.5405626618043  -1810.672240285936 -623.8965862113224 -132.5598764598491  -2205.613889632478 176.0344914462476 74.25244606317868  -801.233729840687 961.9553408677896 -167.0695958270487  -1642.675468360117 322.8725062351014 186.868277418681  519.4787385113738 963.8975962468029 174.185870528884  -2116.070860312423 -522.6029292343079 -49.79721270472221  -1425.538679200797 103.4872648440803 -209.5450463012664  -1110.890755867 559.2222993493455 202.1346056796128  -1343.971359719577 -651.9991581352883 -182.1531417513982  -1366.53536627511 -976.3173634990452 -124.5740910082589  -1149.484467039587 1089.86759010563 117.3464965226768  -575.1051973354273 -1395.109307035167 16.39509204319985  -1186.68718519488 94.9792540076314 219.5347035333243  -1695.841603754524 -140.5104074282743 188.8699389008927  -810.5422183520723 -956.2624682857534 -167.8101055210738  -787.7796256721825 -1223.783016927763 -105.8895568140016  -723.6184720664895 -600.262775258567 -210.0930418847145  1156.623486975982 1265.351619866126 -7.251289881176562  -1559.281115451395 -1061.33844087272 48.1178144641524  -1889.696256470832 -729.6396226235687 87.5873081042391  418.002220881533 1245.555286144577 116.1830403931764  -155.5390916706102 1117.235633776039 152.152667490377  -55.17706093446713 838.1023052116705 194.7201668308477  -682.2722623539497 355.6655950398414 224.9708961363822  -1088.343790601413 -786.9583374895361 180.5040568690733  569.677477036253 943.5193218430151 -176.1115603246442  -1283.338780591172 -1179.690693457454 -58.27244706926762  -183.2470667550375 717.3739920263246 -206.021432807087  -416.6014594469216 307.6389855475506 -229.0460799294852  -258.3060963394461 1340.132133191625 85.11103174142512  -536.4713910880884 -218.0465286054633 230.2510772336256  -170.738928957279 -1171.102581709304 -140.5849163117243  -1128.201921710677 -357.1517796703521 214.5348242171937  -1664.540007905185 -593.5245140876374 159.1125552606976  -2036.897201232105 -292.6314785617106 127.0152348027963  -2189.554431026465 -384.7240734609987 41.23524996759176  -2273.282727487433 -50.20549827766459 -26.1773681555267  -945.0104325453358 619.4309136734299 -203.6480924732879  -1392.372832479697 699.8842347264739 -172.817884618377  -197.8225288995887 -1350.13161288977 -82.17857632190568  -82.03227630460516 1053.481908777321 -164.7891282677228  915.4411997996998 1279.530118331989 67.56198692531679  2005.172788196536 -397.8257140915475 123.8335292240778  124.8138134614472 -400.4674903084685 -226.2917204476117  361.0764763973048 -1403.145548155103 -38.93770384486989  -734.564460124461 918.4788424615896 175.7007159733061  2186.065404341343 390.6607926814032 -44.38832804786161  1465.045050723777 1079.069582675596 69.69100976967606  1716.763372486859 991.9031429005915 -3.06851114064715  -1751.066533169622 -897.3242508505271 -70.20784343838385  -756.557766620086 1364.491714968845 19.99548096734276  -1270.552656214083 1197.086977758833 48.60102495215691  -133.0170128093563 -868.9984486803446 -190.7634953155528  -591.2143095223447 -158.6524937977381 -231.4633364742806  -1214.607292648626 -260.3261992766549 -215.5180095208893  526.1023733937207 1401.689879236178 -13.03941840945177  60.33475749503392 -1426.882639990444 28.03290430208008  1298.57472068571 -929.1710325052804 142.8656417827529  2188.785070005834 395.6197541268244 39.64610896359537  1082.033397448936 -387.8799818541024 214.8559953316986  -1928.909854426289 -814.0795850651656 6.96777742802494  -434.5371143626676 -942.2092857875436 178.4397207127851  1177.150079155504 705.3126158288565 -185.3637301760937  -2005.376285102997 121.8186958402751 144.6443386478895  534.97132446201 -1067.417713260928 -155.8372314842345  605.642562584917 685.6989986758148 204.7956814826647  325.1348046930287 1390.807992610458 53.12520444075194  -1451.61134836053 929.8658814483766 -125.6275823657043  1921.332844560103 -734.75124920493 -73.66439021010758  -38.90440980069585 367.9869825246111 227.730452236513  1764.592583669772 -706.8678990635226 125.4092949774657  -2215.045280377018 370.9410740108027 -6.951805372135829  -1177.12130356841 -1259.739977732016 2.310160271194079  -721.4486622719794 -1354.219564312576 -42.70282939636122  2046.407330936996 680.1388942643655 -1.940303497891306  -552.3279373303681 703.4041494775471 204.3303308505884  688.3346088129146 639.8877353887674 -207.3305465056416  -849.8863577740532 105.1988113255244 -228.8742993327949  -843.6014758496632 1270.780504015185 81.72488659963116  1955.300585434241 -684.5786507478356 78.22630748302309  -157.5715315426645 -1426.042824978256 -25.39268498838066  -1547.508554304466 385.2086740155475 -190.6789819929315  -1086.861204804972 319.7232276384756 -217.8248327908175  -658.214737297948 1159.318796510379 131.9662013644994  -1602.862661020899 -1062.793378615953 -15.44234420284021  -0.2067223775885711 -0.05677472673292606 -0.0573938349379074  -794.0232661932371 -561.1226594490784 6.474717937981269  1198.15189131745 221.5653719097353 -0.9453915637560893  -481.8726517240493 585.9708540117924 53.0098896152228  898.6407936587543 -419.0385476194623 49.35254121234723  -598.0602977515425 60.91508482385236 -106.6544739537164  -1232.788655047554 113.2229614100608 -0.09598853724206599  237.717475780366 660.2343745696768 -45.69329983227951  843.0882889944262 -328.7625688388358 -72.7890968186496  -662.7775430139995 -62.13712820762674 103.7383809426713  627.9705275744191 494.1105129310307 84.12821312764801  -232.2632244519223 -560.6140487246764 -90.18939374529685  203.7955686310926 -810.8733789987767 0.3853484187214781  506.330190531392 215.4642657341039 -118.126384596
[...]
<PointData  Vectors="Centrifugal"> 
<DataArray  type="Float64"  Name="Centrifugal"  NumberOfComponents="3" format="ascii">-2.7654090760786560e-08 0.0000000000000000e+00 5.6964236040511217e-06  -1.5096487126661384e-08 0.0000000000000000e+00 -5.7060625874768417e-06  1.8833741119465769e-05 0.0000000000000000e+00 -5.5758792178020756e-06  3.4729186033796169e-05 0.0000000000000000e+00 -5.0531967063366794e-06  4.6120625072729537e-05 0.0000000000000000e+00 -3.9734526081719115e-06  5.2853152782206710e-05 0.0000000000000000e+00 -2.1841940890028912e-06  5.5083060295502973e-05 0.0000000000000000e+00 6.1436826778482182e-09  5.2857916744382940e-05 0.0000000000000000e+00 2.1917584453860864e-06  4.6120024766509013e-05 0.0000000000000000e+00 3.9765880787797425e-06  3.4727761091791215e-05 0.0000000000000000e+00 5.0607541546337672e-06  1.8836668927014075e-05 0.0000000000000000e+00 5.5777496232022377e-06  2.3431338484327569e-05 0.0000000000000000e+00 -5.2153650893437564e-06  2.3409830000111205e-05 0.0000000000000000e+00 5.3205270740181713e-06  5.2525727983586373e-05 0.0000000000000000e+00 -1.0495255941997873e-06  3.9509754190786988e-05 0.0000000000000000e+00 4.3306617581236934e-06  4.8482963904647182e-05 0.0000000000000000e+00 2.9069468537083365e-06  4.8320433111493337e-05 0.0000000000000000e+00 -2.9439260542536010e-06  2.6084911252503152e-05 0.0000000000000000e+00 -5.1903620466382191e-06  9.1926147703009736e-06 0.0000000000000000e+00 5.4823403514124495e-06  3.9326265286802667e-05 0.0000000000000000e+00 -4.4016333529853706e-06  2.7499512736973670e-05 0.0000000000000000e+00 -4.3516168509366633e-06  3.9694166659330308e-05 0.0000000000000000e+00 -3.1845220456326442e-06  2.7150935091168969e-05 0.0000000000000000e+00 -2.9283758072957460e-06  3.7567611883881292e-05 0.0000000000000000e+00 -1.5071306482361773e-06  2.3551086467564288e-05 0.0000000000000000e+00 -1.2247260431216659e-06  3.3380257479909771e-05 0.0000000000000000e+00 3.2505657015528446e-07  1.7537806845320097e-05 0.0000000000000000e+00 5.5402206863906859e-07  2.5744395116324725e-05 0.0000000000000000e+00 2.1315117324570230e-06  9.2952572342112757e-06 0.0000000000000000e+00 2.1836166113120422e-06  1.6940425115628847e-05 0.0000000000000000e+00 3.5978337253758852e-06  -6.5546395678541429e-07 0.0000000000000000e+00 3.5470407828199427e-06  3.9368025505563461e-05 0.0000000000000000e+00 1.8877696536766011e-06  3.9353569768172287e-05 0.0000000000000000e+00 4.4118501675195448e-06  3.8944691839166453e-05 0.0000000000000000e+00 3.2916732833732577e-06  4.6168756286284536e-05 0.0000000000000000e+00 1.5593500778324347e-06  6.5413043399991636e-06 0.0000000000000000e+00 4.6597994284683286e-06  2.3794269130799328e-05 0.0000000000000000e+00 4.5465810165865292e-06  2.7593368342573170e-05 0.0000000000000000e+00 4.4782970099597142e-06  2.5792074678564127e-05 0.0000000000000000e+00 3.1714685047799637e-06  5.2635802251905119e-05 0.0000000000000000e+00 1.0556290306396642e-06  4.6269142862413204e-05 0.0000000000000000e+00 1.2439515987038487e-07  4.8617296926463471e-05 0.0000000000000000e+00 -2.8653141860374582e-06  9.1709913643441677e-06 0.0000000000000000e+00 -5.4790876857414112e-06  3.9010894559391000e-05 0.0000000000000000e+00 -4.4533537401848564e-06  3.8670104007390259e-05 0.0000000000000000e+00 -3.3459596043546601e-06  1.1585888575297091e-05 0.0000000000000000e+00 -2.4579799644441495e-06  -8.1108537763464896e-06 0.0000000000000000e+00 2.0641058232553198e-06  1.2008948038097986e-05 0.0000000000000000e+00 -4.7904212008333870e-06  4.5872793116439640e-05 0.0000000000000000e+00 -1.6005744784499612e-06  3.4362825400490145e-05 0.0000000000000000e+00 -1.8353350278332193e-06  2.5020295280746446e-05 0.0000000000000000e+00 -3.3915642525979203e-06  1.9312855112166742e-05 0.0000000000000000e+00 -1.8872315167948065e-06  8.7211007973679025e-06 0.0000000000000000e+00 -3.2049621867279258e-06  2.4662697112675776e-06 0.0000000000000000e+00 -1.6806624633979324e-06  -8.9175340641924701e-06 0.0000000000000000e+00 -2.9636706061932730e-06  -1.4382247320480355e-05 0.0000000000000000e+00 -1.2862417523154627e-06  -2.5580916107126762e-05 0.0000000000000000e+00 -2.3738355696001366e-06  -2.7849651445183204e-06 0.0000000000000000e+00 1.1413014427710235e-07  -1.8165545068131770e-05 0.0000000000000000e+00 3.3445019576514697e-06  -2.4425781503005526e-05 0.0000000000000000e+00 1.7079958133379055e-06  -2.9605054368424634e-05 0.0000000000000000e+00 -6.5516259963317942e-07  -3.9307090461140967e-05 0.0000000000000000e+00 -1.7210410938565104e-06  -4.1568837665348421e-05 0.0000000000000000e+00 1.5108452108897251e-07  -4.8980570609283268e-05 0.0000000000000000e+00 -1.1289982442284438e-06  -4.9625017054604887e-05 0.0000000000000000e+00 1.0413840914832589e-06  -4.4299410419705996e-05 0.0000000000000000e+00 -3.1011000115310151e-06  -4.0421885505579552e-05 0.0000000000000000e+00 2.1614540864173794e-06  -5.2109894387147228e-05 0.0000000000000000e+00 -2.0728076138095160e-06  -4.6630173605593083e-05 0.0000000000000000e+00 3.0098729929842591e-06  -4.5568982998856387e-05 0.0000000000000000e+00 -3.9786385430952574e-06  -5.0245490960357395e-05 0.0000000000000000e+00 -2.9371786916003548e-06  -3.5347437424698282e-05 0.0000000000000000e+00 3.8468093844042841e-06  -8.3628502707775790e-06 0.0000000000000000e+00 5.1996474807573216e-06  -3.3820933499862173e-05 0.0000000000000000e+00 2.8685614153418979e-06  -4.1432473370351834e-05 0.0000000000000000e+00 -4.4157434699256147e-06  -4.3664124119492950e-05 0.0000000000000000e+00 -3.2061407428543359e-06  -5.3198705655477208e-05 0.0000000000000000e+00 1.7950661571591979e-06  -1.9314046000157325e-05 0.0000000000000000e+00 -4.0447219243639776e-06  -3.9604249425385493e-05 0.0000000000000000e+00 4.5209089587372590e-06  1.2521218968545913e-05 0.0000000000000000e+00 4.2177844238301707e-06  -5.1039090985909660e-05 0.0000000000000000e+00 -1.2038438929717473e-06  -3.4363082993820932e-05 0.0000000000000000e+00 -5.0710813750237452e-06  -2.6776528528210136e-05 0.0000000000000000e+00 4.8932072365788907e-06  -3.2400148527580922e-05 0.0000000000000000e+00 -4.4081814969928524e-06  -3.2950265127078991e-05 0.0000000000000000e+00 -3.0143586123080046e-06  -2.7715627695652178e-05 0.0000000000000000e+00 2.8400297194684387e-06  -1.3866859578883308e-05 0.0000000000000000e+00 3.9692058193529487e-07  -2.8601383948842069e-05 0.0000000000000000e+00 5.3144159142333883e-06  -4.0886327166580964e-05 0.0000000000000000e+00 4.5692106288149230e-06  -1.9538486521982686e-05 0.0000000000000000e+00 -4.0626042987750783e-06  -1.8993385287252206e-05 0.0000000000000000e+00 -2.5632378286044527e-06  -1.7439040130350869e-05 0.0000000000000000e+00 -5.0872823523423884e-06  2.7891167307707311e-05 0.0000000000000000e+00 -1.7554608303145876e-07  -3.7604136681829206e-05 0.0000000000000000e+00 1.1641419352864642e-06  -4.5574364470513639e-05 0.0000000000000000e+00 2.1181999105957354e-06  1.0077309180395958e-05 0.0000000000000000e+00 2.8130433349006491e-06  -3.7489674776470083e-06 0.0000000000000000e+00 3.6845085519798941e-06  -1.3297726183434866e-06 0.0000000000000000e+00 4.7159013115116107e-06  -1.6441177179408641e-05 0.0000000000000000e+00 5.4479636971652037e-06  -2.6235734206337311e-05 0.0000000000000000e+00 4.3692637041177921e-06  1.3731219017504680e-05 0.0000000000000000e+00 -4.2643870100246540e-06  -3.0947265581308546e-05 0.0000000000000000e+00 -1.4100049981628122e-06  -4.4161899729810427e-06 0.0000000000000000e+00 -4.9897784665377368e-06  -1.0038341546134781e-05 0.0000000000000000e+00 -5.5475440840150730e-06  -6.2273622768297321e-06 0.0000000000000000e+00 2.0607601390790228e-06  -1.2926752456834189e-05 0.0000000000000000e+00 5.5765680261626193e-06  -4.1158458033083664e-06 0.0000000000000000e+00 -3.4042246189794141e-06  -2.7192419445823614e-05 0.0000000000000000e+00 5.1933917782514127e-06  -4.0135231023615976e-05 0.0000000000000000e+00 3.8493248948909334e-06  -4.9123452645132290e-05 0.0000000000000000e+00 3.0711720839349151e-06  -5.2812740930256495e-05 0.0000000000000000e+00 9.9688527401104540e-07  -5.4833565634359705e-05 0.0000000000000000e+00 -6.3268081510933699e-07  -2.2776819929286200e-05 0.0000000000000000e+00 -4.9303140461678569e-06  -3.3568376659524549e-05 0.0000000000000000e+00 -4.1820281341980157e-06  -4.7691662222937338e-06 0.0000000000000000e+00 -1.9897059339291630e-06  -1.9772134336785571e-06 0.0000000000000000e+00 -3.9905849837157833e-06  2.2073435903359368e-05 0.0000000000000000e+00 1.6352944942169423e-06  4.8357488063324461e-05 0.0000000000000000e+00 2.9944674579130048e-06  3.0078812220106289e-06 0.0000000000000000e+00 -5.4812961647694807e-06  8.7060885889095246e-06 0.0000000000000000e+00 -9.4271652258587056e-07  -1.7706011768163981e-05 0.0000000000000000e+00 4.2540378240702074e-06  5.2728006095799132e-05 0.0000000000000000e+00 -1.0731327798736092e-06  3.5329993653104710e-05 0.0000000000000000e+00 1.6860433110085132e-06  4.1404552192623880e-05 0.0000000000000000e+00 -7.4264427836299858e-08  -4.2230458081536062e-05 0.0000000000000000e+00 -1.6981499745573971e-06  -1.8242433708093195e-05 0.0000000000000000e+00 4.8404629359253401e-07  -3.0639049103681031e-05 0.0000000000000000e+00 1.1760737205775160e-06  -3.2057598680369298e-06 0.0000000000000000e+00 -4.6199936724962814e-06  -1.4246136739495004e-05 0.0000000000000000e+00 -5.6056451519762243e-06  -2.9275357282335912e-05 0.0000000000000000e+00 -5.2167479245681526e-06  1.2685464195785666e-05 0.0000000000000000e+00 -3.1568040270028058e-07  1.4550028660656629e-06 0.0000000000000000e+00 6.7872292801608559e-07  3.1309515717709451e-05 0.0000000000000000e+00 3.4572637734801179e-06  5.2793812870415545e-05 0.0000000000000000e+00 9.5839546292791280e-07  2.6079209353143290e-05 0.0000000000000000e+00 5.2012756592327439e-06  -4.6523088007256994e-05 0.0000000000000000e+00 1.6852715490427198e-07  -1.0473281002600742e-05 0.0000000000000000e+00 4.3211264545837265e-06  2.8376323460110168e-05 0.0000000000000000e+00 -4.4867483074313047e-06  -4.8360877001650207e-05 0.0000000000000000e+00 3.4977064502565645e-06  1.2895694569623570e-05 0.0000000000000000e+00 -3.7733747577989384e-06  1.4596071743886243e-05 0.0000000000000000e+00 4.9593509579664131e-06  7.8395387930814825e-06 0.0000000000000000e+00 1.2862057086361940e-06  -3.5002121197887278e-05 0.0000000000000000e+00 -3.0395932411141373e-06  4.6338167364602499e-05 0.0000000000000000e+00 -1.7815244720682353e-06  -9.3750366797102225e-07 0.0000000000000000e+00 5.5162073043716569e-06  4.2552746296324179e-05 0.0000000000000000e+00 3.0333957685753543e-06  -5.3428265557968747e-05 0.0000000000000000e+00 -1.6798240883752913e-07  -2.8386160017371260e-05 0.0000000000000000e+00 5.5968371542840544e-08  -1.7395685089830892e-05 0.0000000000000000e+00 -1.0336552967330172e-06  4.9358507614670584e-05 0.0000000000000000e+00 -4.6952366013377608e-08  -1.3310948086865649e-05 0.0000000000000000e+00 4.9481507239457415e-06  1.6588843622706270e-05 0.0000000000000000e+00 -5.0205851196673965e-06  -2.0480675389852481e-05 0.0000000000000000e+00 -5.5419429411765751e-06  -2.0340280269780466e-05 0.0000000000000000e+00 1.9782361591044213e-06  4.7157646106032299e-05 0.0000000000000000e+00 1.8916655506468094e-06  -3.7989009686992404e-06 0.0000000000000000e+00 -6.1476913537691778e-07  -3.7307666456591080e-05 0.0000000000000000e+00 -4.6137116777556113e-06  -2.6195250366891196e-05 0.0000000000000000e+00 -5.2731809872133256e-06  -1.5867919685037963e-05 0.0000000000000000e+00 3.1949468500299083e-06  -3.8656331353826007e-05 0.0000000000000000e+00 -3.7352329046320674e-07  -4.8057070823479577e-09 0.0000000000000000e+00 -1.3722362868376002e-09  -1.9135879071122138e-05 0.0000000000000000e+00 1.5685659094668029e-07  2.8877877006016547e-05 0.0000000000000000e+00 -2.2951808547963406e-08  -1.1612029222592248e-05 0.0000000000000000e+00 1.2838091182513887e-06  2.1656942302671104e-05 0.0000000000000000e+00 1.1948911325628038e-06  -1.4410510098699421e-05 0.0000000000000000e+00 -2.5829606397856766e-06  -2.9712885401534244e-05 0.0000000000000000e+00 -2.2695315882569013e-09  5.7283861408238083e-06 0.0000000000000000e+00 -1.1067006985862513e-06  2.0317089629912618e-05 0.0000000000000000e+00 -1.7625901553937448e-06  -1.5970447958279189e-05 0.0000000000000000e+00 2.5122837279903272e-06  1.5132785781056451e-05 0.0000000000000000e+00 2.0373051079997368e-06  -5.5967402202216473e-06 0.0000000000000000e+00 -2.1844088567509885e-06  4.9113954272402166e-06 0.0000000000000000e+00 9.3482076251663535e-09  1.2200376229744406e-05 0.0000000000000000e+00 -2.8609903159898850e-06  -4.7403140321316055e-06 0.0000000000000000e+00 2.1707652868558845e-06  1.0749781569163731e-05 0.0000000000000000e+00 3.0418874193194947e-06  -2.0150600542854776e-05 0.0000000000000000e+00 -1.1159096738032007e-06  -2.9623094939225343e-05 0.0000000000000000e+00 -1.7080935165120591e-06  3.0267126311519404e-05 0.0000000000000000e+00 2.1721600594827272e-06  -4.1605381277946085e-06 0.0000000000000000e+00 3.2186458010962945e-06  6.1304740330714584e-06 0.0000000000000000e+00 8.4128631814898062e-07  2.5498352346212762e-05 0.0000000000000000e+00 -1.8202325272912894e-06  2.5125525990957577e-05 0.0000000000000000e+00 1.6761267234829149e-07  -2.9326757884974925e-05 0.0000000000000000e+00 2.0623618525104213e-06  3.5576219891225887e-05 0.0000000000000000e+00 -3.3170308620978228e-07  -7.3181839451295098e-06 0.0000000000000000e+00 -2.8811139295894475e-06  -3.4302987302601902e-05 0.0000000000000000e+00 1.3555862852863574e-06  3.3774843100891739e-05 0.0000000000000000e+00 -2.0415542698878452e-06  2.4752027339086276e-05 0.0000000000000000e+00 -5.0043911492460615e-07  -3.2132503210311978e-05 0.0000000000000000e+00 -2.0821694442077275e-06  7.6773562635967481e-06 0.0000000000000000e+00 -3.4650098170188416e-06  -1.1500269390683863e-05 0.0000000000000000e+00 -9.9169171815027084e-07  -1.1085959762454498e-05 0.0000000000000000e+00 9.2124118840183834e-07  1.3292390274809649e-05 0.0000000000000000e+00 1.8233377953081760e-06  -2.8662861927522093e-05 0.0000000000000000e+00 7.9105711293287772e-07  1.1260895051922670e-05 0.0000000000000000e+00 -1.8593886668899694e-06  -7.9660659353091023e-06 0.0000000000000000e+00 -4.4400387503334158e-07  -1.9871374006391426e-05 0.0000000000000000e+00 -3.3126617419247386e-06  3.3260326315097959e-05 0.0000000000000000e+00 1.5901484073055879e-06  4.3571501313866155e-06 0.0000000000000000e+00 4.6007721171929040e-07  1.3044902242301147e-05 0.0000000000000000e+00 -1.0250773863190363e-06  </DataArray> 
</PointData> 
</Piece>
</UnstructuredGrid>
</VTKFile>