<?xml version="1.0"?>
<VTKFile type="UnstructuredGrid"  version="0.1"  >
<UnstructuredGrid>
<Piece  NumberOfPoints="201" NumberOfCells="657">
<Points>
<DataArray  type="Float64"  NumberOfComponents="3"  format="ascii">-47.66598595754154 97.90914909027178 276.7081432970294  -3.890021725959042 -101.2998209449943 -279.0647131770805  4241.020772447704 55.89264608495218 -389.2616304836291  7139.453166290805 163.272606500766 -485.6565779677837  8714.750602700065 219.7156062750002 -515.4594884698412  9503.653969455172 239.4421982150422 -385.6125939496371  9748.250075369491 241.4766672069937 -159.518809803977  9506.10855011664 242.3182592604354 63.48920103863637  8716.196715303604 251.8296635426452 199.1246111939955  7142.954959511337 262.6777666717127 210.0061943413296  4217.519593360837 222.1832064488302 222.9132938408218  4896.932162856209 -1286.24329483748 -862.5656176043649  5152.869476042945 1315.367154544929 575.922191988822  9348.864549433276 -1006.889086846901 -541.7621935124751  7662.93726600009 -1102.063492425485 -172.3848990976961  8947.609103180863 1513.249374652562 438.8452885075275  8961.380241237988 1504.534538164841 -136.4789956826985  5690.952869695854 1375.252598885962 -34.8543365555006  1980.755322503222 -1101.985909543666 -185.9237431708995  7610.974515042001 -1052.978346036432 -837.9145135826848  5364.842085443866 -2210.062649074298 -1110.848132068257  7377.808191677928 -2115.040635877174 -1007.010277814585  5050.083443317603 -3017.806676141265 -1181.670662993183  6824.337089754525 -2818.964768899959 -988.1379944283092  4267.440519047036 -3521.62388151932 -1106.703379736274  6055.634515277958 -3183.290546910334 -887.2282314371962  3105.143170990953 -3740.968340199556 -986.9768945429806  4749.856746771657 -3292.599064546056 -798.4947116976914  1529.094696013238 -3695.246756407669 -871.9475027667005  3196.32685274275 -3065.007895933872 -722.5252033599781  -440.8962789921871 -3377.081090710052 -736.6035829447437  7199.274571407641 -2612.239840326383 -642.3458630429349  7764.636913894462 1504.610412610015 567.1914948806537  7521.900783111336 2583.856565856359 775.2798794088476  8508.754503518408 2514.887706700111 538.0312210008477  1174.406964279931 -2548.440665523665 -588.7032617848727  4790.497421805986 -2148.842323652038 -504.3129790908842  5745.743195817506 2450.666659079812 889.1933320259161  5259.343363845519 3315.187751877543 1022.106965612671  9376.025592973314 -976.8946786596323 -317.9640550597055  8293.797130674826 -2192.910880442705 -679.9492703785431  8876.84561545468 -1028.633964723882 -731.7160506171537  2209.038523716466 1245.575756284243 109.8142066522312  7778.624295147886 1422.500565439665 -150.8805666095126  7538.137032865311 2559.747662605581 183.5228115387263  1990.548420825562 -3598.421549798552 -1230.395126771549  -1947.278891063357 -3862.749724982096 -827.9477536414061  2373.370873332825 -2362.074956396698 -1106.828587532764  8486.073080153728 2541.741708828554 228.7476912545696  6691.587560467211 3378.242629648477 495.3563015189162  5226.989751271432 3227.935367867386 492.8788206873116  4052.987778508434 3804.947209427383 729.5431514522439  2064.946278441496 3528.609085677593 716.9125778781699  780.303087682608 3909.579928949941 882.7299983030254  -1541.804805782683 3493.653749926678 810.2273159519407  -2556.271729765175 3760.21141827509 938.2049264348708  -4756.407182751034 3257.505836214742 785.3710553933547  -261.2349917354044 3996.281259171225 1048.7431408059  -3957.001949771294 -3422.319577501619 -610.126227628637  -4973.635295889246 -3771.903862453593 -687.3749774032486  -5395.50285689424 3365.378598442914 906.3638948933611  -7166.709763336274 2673.910060772996 668.4898437576552  -7474.849282215225 2667.754909257536 816.089368282408  -8761.337065350655 1737.136013835709 483.0627680553911  -8842.412337918384 1643.485318926001 677.3064739708525  -8189.236405131879 1635.182681635198 336.6459103614005  -7359.320815463478 2474.434044653663 988.9017281230164  -9329.464025380346 599.9955402549515 139.4122740592197  -8526.465735081023 1328.940723060744 815.8849157511133  -8589.271687455293 287.6510807433339 -55.035347542598  -9176.944118273812 -863.1815996639931 -282.6518276066558  -6727.018464134895 2092.167834805589 1064.045943235789  -2105.228267973826 -1890.354586684496 -314.0842719272574  -6673.067103818491 -3118.027022415696 -395.356554319582  -8073.721784066005 -1084.889548042604 -447.91663525436  -8244.989168508841 -2143.961176579098 -639.4726113818989  -9469.648782967937 297.2141715263589 470.7362175499874  -3766.506826012617 2756.256935952094 650.1859081582309  -7685.243891433191 818.244019504693 788.9242484867827  2818.538494844509 3018.476931640475 1121.869401931475  -9202.259873004303 -1821.208453734695 -332.4431345496359  -7029.239127891304 67.6527835809908 -120.3935160221493  -5416.207613492263 1637.386496318353 980.1617361319277  -6569.229069977856 -2251.504082241825 -808.8047486432282  -6480.298657631305 -3114.294602644354 -912.138795524291  -5150.527503133105 3043.434783282544 1184.368683840954  -3017.164917099375 -4036.503040983844 -920.4331349080501  -6064.722386541654 185.0363787789061 542.4229422057815  -8041.418969617895 -645.0342820459316 387.6284244367425  -4189.218506710013 -3046.554299263517 -1075.580572890697  -3994.742538158812 -3688.245545750754 -1101.060723387801  -3916.248129995899 -2087.776520719451 -860.0728349507579  5550.914088186732 3788.822226985496 774.2616284472977  -7170.948242465569 -3327.521333614921 -514.0543561421345  -8483.637351703774 -2429.45515686322 -172.8343804593314  2282.706883652605 3671.409571694581 1173.470105365722  -527.6645689033693 3287.499870795838 1241.453898702649  -76.8998158122149 2618.837476392196 1119.806532829013  -3554.598117200852 1115.735822456647 766.2400232271481  -5553.944948226308 -2579.17468188548 -306.3300988329558  3138.560613869113 2939.831323712378 535.8006167519152  -6050.238409252717 -3620.756000876093 -875.967848414605  -756.3217570817908 2183.687849501051 482.4994686826462  -2190.942328481765 857.6042744022496 107.8977602670574  -962.9792128921729 3771.403178450864 1205.69363847194  -3048.200686115515 -741.9572101563843 89.99844599690849  -1121.416496768629 -3474.226667371053 -1226.046508280614  -5872.513395144149 -1279.051290803518 71.38168740789591  -7846.491929912632 -2044.56836904595 -34.51312019790831  -9048.580425120534 -1136.821050230817 238.3261089541334  -9444.386757190741 -1410.698003244176 2.651217002036396  -9690.036778709857 -395.4724175415635 56.94635502190715  -4692.108739458899 1757.42916023361 397.8988901941152  -6541.729955360765 1926.011395732652 419.6295107940153  -1263.608722328585 -3877.111213402064 -1171.497792556439  -151.7382461142528 3115.438918676071 689.1270014141101  4515.049816218575 3802.244846564659 998.819164547294  8881.850423597833 -960.4068065432932 -168.5466491586697  552.2209701339369 -1365.517304423267 -745.1170711746864  1378.392987655913 -3887.277595640317 -1126.54102581417  -3438.394801429984 2699.904057921864 1202.168754040242  9463.880121505004 1424.704183240974 -11.13877979499854  6809.780561957217 3360.018446347013 811.8081023795512  7752.373552849549 3136.580248332722 531.232342234217  -7909.553980623134 -2893.432898455771 -666.8672287986902  -3273.540021271718 3746.406939791224 1076.275988190269  -5579.424988129899 3273.312247594265 1056.436551209532  -916.9137351113297 -2737.662451637909 -1123.979170724203  -3253.272883537527 -717.9574344928503 -418.0647082454019  -6209.986990461743 -1085.866610682925 -488.1210647109398  2766.800575331966 4027.098448679295 932.5469422343284  -54.66429199987146 -3993.469706856555 -980.1026261805542  5953.19134375138 -2572.867538849313 -590.9320757091235  9462.35452010918 1439.001347528822 209.7662652207127  5466.717583696758 -1011.337830889074 -173.8096701422632  -8550.651712353723 -2658.100830769702 -393.0284159361877  -2508.936667211316 -2924.491236729102 -566.4335126597583  5990.812921576946 2341.562804909051 220.2860949509437  -8925.919743735978 147.2782687689876 581.1167579600476  2362.682280146895 -3096.145282249811 -1245.024956546889  3301.011049903887 2308.883616178426 938.0934708578908  1820.296149686655 3974.315026889633 1096.722573482747  -6571.089409575365 2561.624902896807 593.1725592575117  8364.549133756638 -1945.682007340364 -822.3795305358198  -117.5921496124434 1282.8805897699 698.4720673003861  7894.206562947541 -1890.850334405115 -409.7758208221893  -9434.099452509825 879.6951379982661 384.6165353147961  -5604.992107095006 -3806.840262931425 -789.4358168350007  -3666.218738940493 -3970.957922908543 -1012.505402826863  8958.948718255377 2272.842506433419 294.0037543716469  -2698.155404873944 2164.948183737268 1065.243098625263  3814.743638828287 2094.142597751517 285.6717304104574  -4521.891158269285 121.0200591052976 -101.4719156574938  -3712.406783210405 3523.597955268061 1183.987213885966  8531.128330307572 -1799.500493755137 -440.9878705620637  -1077.65371379049 -4032.997314017502 -1071.011679274014  -7379.962368363484 961.0339279507381 149.4772650072709  -5515.280129226422 798.8195279374246 117.3693676352158  -2932.291483026072 3297.299118912028 1249.743443137317  -7306.416803220329 -3327.522006537502 -645.3361862346608  -18.46016296146514 -1.928105666150185 -0.4424915701117712  -4303.279072533904 -1936.50778516897 -495.8410611422769  6198.475850258249 909.8744249288104 110.1873177474885  -2422.717987756116 1812.316877521905 741.6424576832894  4612.079770684196 -1187.921876690289 -457.6475456682068  -3280.990247727367 53.60456704173492 -0.7007405347677871  -6270.007504440156 173.9621968804369 234.8571546328695  1470.428262900483 2137.850675364114 609.687320624531  4399.350634840522 -947.6544432937436 -537.1073545720207  -3652.71738589699 -286.7765878840905 131.7909458715897  3486.237319113894 1732.107711908289 579.1447220322516  -1429.723138757282 -1879.01382937179 -700.6672059165852  841.9977064281906 -2494.764666317023 -832.4293800656835  2866.869017263723 760.7628209468537 42.82341906729
[...]
<PointData  Vectors="Self-Gravity"> 
<DataArray  type="Float64"  Name="Self-Gravity"  NumberOfComponents="3" format="ascii">-2.3201203987670605e-06 3.4620709212275208e-05 -1.0224825629619045e-04  3.2514944033082021e-06 -3.2268471985195431e-05 9.5398974648578842e-05  3.6417936228344053e-06 -3.4884929789259366e-05 1.0655666393758852e-04  2.3880094647180030e-06 -2.3784326839884412e-05 7.7777946609761738e-05  3.1994154869593486e-07 -1.1708663544268266e-05 4.5721755533259008e-05  -2.0573288667666100e-05 -1.9400269995518402e-05 8.3029898672169918e-05  -3.2101283808938532e-05 -5.0324965559016176e-07 4.9484637602364103e-06  -1.6640514710470036e-05 1.2802307334486372e-05 -5.3131286707474097e-05  -6.5762150519587103e-06 2.6280449936968030e-05 -9.5796329932208753e-05  -1.6579132407204930e-06 2.9608874333355786e-05 -9.3377535376816607e-05  -1.5365346677523955e-06 3.0036958591821875e-05 -9.5677696987493693e-05  1.1053661679092289e-06 -1.4076813397225106e-05 4.7393417537197713e-05  -2.8668227260124364e-06 3.2512047264363257e-05 -1.0722004637065382e-04  -4.2553000242721036e-05 1.2818904905135400e-05 5.3202210814846343e-05  -1.4478857241887302e-06 9.7637517130178513e-06 -2.8569678371610767e-05  -1.8706013215863676e-05 1.8723078416154084e-05 -1.1550730151759737e-04  -4.8690617157922213e-06 -2.9557177808708599e-05 9.1811009288647480e-05  5.0118630402873585e-06 -3.8991278488253921e-05 1.2127630347981628e-04  -1.6687369644825050e-06 2.8487188920981761e-05 -8.8664332631982034e-05  -6.7299979115207718e-07 -2.9050812536959612e-05 1.1542596712694858e-04  -3.0921042569781537e-08 -2.3258963333051072e-05 1.1184089132338683e-04  -7.1364510035227180e-06 -1.0669912119921909e-05 1.0979225436592434e-04  -2.1281468623196969e-06 -2.5129198620920864e-06 5.8521273695241456e-05  -1.2743468926706137e-05 2.2100813999002187e-05 5.2110830790773247e-05  -4.6027990587113577e-06 2.2030143133357086e-05 3.3393023563006042e-05  -7.7352844538098479e-06 3.2738258495900856e-05 -2.0502765818247197e-05  -3.3845454078400195e-06 2.6745998539986928e-05 -1.6134322713410030e-05  -2.0041515069176347e-06 1.6421219690136868e-05 -3.9140132932358848e-05  -1.1901816525412786e-06 1.7917144270187717e-05 -4.7613524238466202e-05  -1.4857769735123806e-06 2.6284070153084958e-05 -9.0789709657016718e-05  -2.0194608317938357e-06 2.1273025722008648e-05 -6.7865751710042996e-05  -4.9921008831845439e-06 2.6914724181233762e-05 -5.8715291982890885e-05  -2.7445970682118640e-06 2.0188472101819593e-05 -8.1124907477124835e-05  -8.3725345204276845e-06 1.1201789750957088e-05 -8.9857319072372260e-05  -2.5004197705314810e-05 -1.0325735296624832e-05 -8.0243575875681448e-05  -1.9036589193384905e-06 2.0457923921079001e-05 -6.7186993065817313e-05  -1.5395081495297542e-06 1.8186134636290267e-05 -5.9200467378865816e-05  -3.4232699559615381e-06 1.7436742917387413e-05 -7.3605164334700739e-05  -6.8503254467201835e-06 -3.4146038216121520e-07 -8.4335532356209420e-05  -2.9218039323308401e-05 2.8613448940061855e-05 -5.0797482328257461e-05  -1.9202752023059626e-05 3.2865549168090435e-05 -1.2446094509283392e-05  -1.4033032579361098e-05 -1.9322896249952782e-05 1.2224858276675812e-04  3.4010727681741100e-06 -2.9804660461678123e-05 9.7095333930934992e-05  2.6302823436320069e-06 -2.2106759417951973e-05 7.0284328850629555e-05  1.0596312136280527e-06 -2.7061785590611881e-05 7.8184017885327058e-05  -7.0059734644509021e-07 5.2917013404553563e-06 6.4424326436126372e-05  -1.6713307112456814e-06 1.8590756544624389e-05 -4.7808364325695121e-05  2.2802268294058952e-06 -2.6478486417647459e-05 1.0328244934541669e-04  -6.4753344469874883e-06 -2.2543843388960406e-05 4.4757938154634170e-05  -7.5121694713644119e-07 -2.5928478364806662e-05 5.4454513871599621e-05  2.1897014993199887e-06 -2.2508105878440708e-05 6.3919093291640346e-05  1.2128270633723132e-06 -2.0393216221470534e-05 4.6349826822858734e-05  1.3909611972156284e-06 -1.2393796454215816e-05 3.1134737397087948e-05  1.4087638553842118e-06 -2.2080799005587312e-05 4.4263702204447936e-05  1.3994305940415437e-06 -1.7631335196251700e-05 5.5497194746089772e-05  2.8584364680363671e-06 -2.8836560212497278e-05 4.4698611247017138e-05  1.4164497436805997e-06 -1.6898694966233544e-05 3.8625381870032954e-05  1.4666543616453110e-06 -3.3879977175348232e-05 -1.0765830988115870e-06  -7.3994793798388154e-07 1.2779780846961793e-05 -4.1119839566591030e-05  -3.8739766287485695e-07 2.4343176694290347e-05 -4.6224241389649673e-05  4.8338041633355768e-06 -2.6678213147661543e-05 2.6783782794735849e-05  6.9359822746359176e-06 -2.5068299517834621e-05 4.6863980809017535e-05  1.6617406494587963e-05 -2.9023673335031499e-05 -1.1323656136452718e-05  1.7779262111265984e-05 -2.8886885183802204e-05 3.7179118402031809e-05  2.4785604951000200e-05 -1.8199772045348784e-05 -2.8334261676422806e-05  6.8299107869779160e-06 -4.1546613750150073e-05 1.3252141739222631e-04  1.3192480795792441e-05 -6.6635441458433816e-06 -8.3597611475237516e-05  -2.0305801620266355e-05 4.2289091072001890e-05 -2.3739691842208723e-04  1.4665020842184199e-05 1.2371613207356346e-05 -1.0716873322173982e-04  1.2960159203812594e-06 7.2251502301511428e-07 7.8100968757871873e-06  9.3614306640125227e-06 -1.5479789821279568e-05 4.2934545244473268e-05  1.4971900144434497e-06 1.7208985862551150e-05 -9.8300737274331109e-05  -2.2871743011058937e-06 2.3730235045264527e-05 -8.1258778359093406e-05  -9.6385438288468854e-07 1.7568726501374747e-05 -5.2384498794818835e-05  4.1940747661599973e-06 -2.0234641731202520e-05 6.7464791925412565e-05  1.3377977155267936e-05 -1.6609739974295359e-05 9.6263892470237276e-05  1.3252574347713650e-05 5.0634032461928607e-06 -3.9392317968919171e-05  1.6411400993025762e-06 -1.4971156256028283e-05 5.3663141527388141e-05  -4.8437240090137309e-07 1.0402420579027178e-05 -3.9413031807041813e-05  -3.9568654871496369e-06 2.0109865330971720e-05 -1.0749519731117391e-04  3.7884168619378644e-05 7.0418762227231550e-06 7.4072394498302804e-05  1.0874608338670732e-06 -1.8260955664135068e-05 4.8618182308611723e-05  -2.0897843602564667e-06 2.7756689071072049e-05 -9.9837963085443494e-05  2.1997036658847034e-06 -1.1555482457787256e-05 4.6542012002246245e-05  8.1782827361435900e-06 -7.3047911212165061e-06 9.6515835575385162e-05  6.6171001985333307e-06 -1.3204849408466199e-07 -1.0037533860561735e-04  -7.3290019260394901e-08 2.1848793611432679e-05 -1.8034272000762815e-05  -1.7753322777430227e-06 2.3299523206750052e-05 -7.2978514474836937e-05  -4.9080339074793109e-07 1.9367051484380045e-05 -6.7884659657076063e-05  4.4270812394904225e-06 -2.0317192465541204e-05 1.0643719156870441e-04  5.7585711833179524e-07 -5.1723856992668261e-06 1.6133516688193400e-05  2.4946663379156555e-06 -2.7082690916605286e-05 8.8317801118679846e-05  -6.1747229126728512e-06 -3.8813047548510135e-05 6.3266335235606429e-06  3.7776283587981865e-06 2.4328134025665998e-05 -3.8642778356928146e-05  6.3976130024340840e-06 3.0364309575318162e-05 -7.2594398611576191e-05  -2.9443299711455807e-06 2.9651265791312945e-06 -8.9951920190546990e-05  -2.0019052442229088e-06 1.4310960146781031e-05 -1.0367871559493377e-04  -1.8670294194147778e-06 1.9561101305637840e-05 -7.4786370130283111e-05  -1.5668837751878138e-06 2.0792658490054144e-05 -6.3201977996145148e-05  -1.5500740731833819e-06 1.7010214420116002e-05 -5.2520158266326130e-05  2.0022474867287246e-06 -1.6221527304005808e-05 5.1158628379756785e-05  9.7071335421827886e-06 1.4157095633339396e-05 6.9448488056603246e-05  2.4155239477265986e-06 -2.8858824959541675e-05 9.8761350387934282e-05  2.7676128177431039e-06 -3.4534789624920068e-05 1.0711578418140668e-04  -1.5851790302511012e-07 -1.4556059907248605e-05 -8.0727998012389231e-05  -2.7499057001917937e-06 2.8222058767238300e-05 -8.8803589625500778e-05  2.1485900157204345e-06 -8.0378480307552183e-06 8.9837962331863584e-05  -2.7321330350677154e-06 2.8721525317111630e-05 -8.9756929674806118e-05  -1.6132442875061686e-06 1.8684927662678935e-05 -6.2090177493655539e-05  4.8689171142312825e-06 1.4757104059804887e-05 -5.5993809195227417e-05  2.7779732117052857e-05 1.7344601180151737e-05 -2.9665338705459612e-05  -3.8782602090926601e-06 -3.8063132207293208e-06 3.4939857937547271e-05  1.5254589288117597e-06 -2.7165002260092414e-05 9.0091688320898179e-05  1.5152644562854723e-06 -1.1784124084721184e-05 2.8250859779900110e-05  1.1972455593583876e-06 1.1519207040116531e-05 7.6857811891963164e-05  1.1494205655575174e-06 -2.1789789633472329e-05 7.2542160384218626e-05  -6.6526614960917294e-06 -1.6346262212929601e-05 -7.2524001991336646e-05  -6.5990797267123619e-06 2.4680689154436396e-05 -7.5581539074264808e-05  2.5373147891117482e-06 -2.6732579468812280e-05 8.1713385317385348e-05  -1.6538910443211827e-06 2.2718857366074151e-05 3.2741683340627936e-05  -7.1090009744943132e-07 2.1509769922548940e-05 -9.7534489496616450e-05  -2.9012626494334996e-05 -2.6421406356442083e-05 5.2218813201786441e-05  -1.1265184262054785e-05 -1.1989948764355386e-05 -7.7327453174351208e-05  -1.4433795815677123e-05 -3.1760967485218432e-05 1.4915156963511314e-06  2.1365939527918463e-05 1.3824352022005892e-05 7.9127354365359393e-05  4.6349826542618904e-06 -3.1188614714778768e-05 -2.0349890621554243e-05  8.6303120722894836e-06 -2.5547254897702827e-05 -4.8890770925807832e-05  2.0742835614573188e-06 -1.9614913428245445e-05 8.1098150545841122e-05  2.1753755526006181e-06 -2.7718052996049374e-05 8.8229201986254787e-05  2.4973545447303684e-06 -2.1001863339944908e-05 6.2849759373441550e-05  9.4051867562609416e-08 -2.2044636595375607e-05 1.5070002025582640e-05  -1.4112259046714266e-06 2.3858647607044364e-05 -2.5455111683912901e-05  -1.2511198881029720e-06 2.5313807449564635e-05 -7.4166996588714704e-05  -3.7806399607782096e-05 -2.4448361885350020e-06 -5.5703956343626806e-05  -1.6736789208232634e-06 3.8316474752300397e-05 -1.2077572407979656e-04  1.7958163927821892e-05 2.2236502755573479e-05 -1.0025044664890201e-05  -3.7753927956569720e-06 3.0567852749782633e-05 -1.0243010260858277e-04  1.3728558726522899e-06 -1.3757218289290578e-05 4.1226239698071458e-05  2.7429176703609550e-06 1.5905620013798543e-05 -6.2119603000942777e-05  7.2878137074072691e-07 -5.5580534787277023e-06 1.5686883676520130e-05  -1.8439021132642728e-06 2.0112942758280994e-05 -6.4029998566624103e-05  -1.5332012474032158e-06 -2.4706089052578530e-05 -4.8508699479755547e-05  1.3121896148145477e-06 -2.0350568634925842e-05 6.8658957802678511e-05  -2.0202894941907562e-05 1.1292518597980954e-05 7.3010856195573838e-05  -3.0085788911717407e-06 2.9063593944816153e-05 -8.9052447212515203e-05  -2.2610215708199602e-06 1.7647089195414962e-05 -5.2790784818808406e-05  8.0119689988029907e-06 -1.5547011168312618e-05 7.9768581912499834e-05  4.3878119427852411e-06 3.0530850795182468e-05 -7.0134103997309231e-06  2.6894244995719646e-06 1.7361997502873831e-05 3.1017234544169457e-05  -1.9295520681731804e-05 -1.9333757868125220e-05 -2.7160483410410348e-06  -1.1667219573423020e-06 1.7219795835280674e-05 -5.5006124866249652e-05  3.2857751426681377e-06 -3.0366761920615311e-05 9.6672841328961318e-05  1.7965674347398565e-06 -2.5127531330560230e-05 7.3395239759750341e-05  3.5774096670262439e-06 -1.5286266527927474e-05 -5.3555332121410680e-05  -1.1438121525120543e-05 2.9904447598351653e-05 -5.6894633321286915e-05  -8.8405323034834320e-08 2.6611412171400136e-05 1.7001864176792306e-05  1.8212127101698506e-06 -1.2202318767063162e-05 3.4326711753156497e-05  1.7238200785582116e-06 -2.4117002422539491e-05 6.9565577445204678e-05  7.5210484433855670e-07 5.0101027540292338e-06 -1.0390831660195689e-04  1.6686717873733639e-05 3.6045339161447711e-05 1.9712383326718705e-05  -5.0116168861320081e-08 5.1124287552161164e-07 6.0638715996753859e-08  3.9495610602165516e-06 1.0574279257129002e-05 -8.7412910240575973e-07  -1.1556183453272116e-05 -1.8865544879000210e-06 -8.1137608241587538e-06  1.1930640596962672e-06 1.3494069624814552e-06 -4.9126839826155569e-05  -2.6709019934696019e-06 1.3693305183905742e-05 -3.5620218811460807e-05  1.9332672477820974e-06 -1.8220309720891598e-05 5.7360854958064021e-05  3.2088770307700942e-06 -2.2054202760146007e-06 2.7873066630771300e-05  1.2415273809872361e-06 -1.5850076759233520e-05 4.2857489681532749e-05  -2.0193765326927015e-06 -8.9873471431743142e-06 4.6534603991945819e-05  -1.1468080969090486e-06 1.7231165993498794e-05 -5.7679273682185585e-05  -4.1898142852119701e-06 1.2874428194197453e-05 -7.2220747248274945e-05  1.5446300292209500e-06 -5.9665271771036635e-06 3.6795148907004724e-05  -6.9654173527427711e-07 8.0843272559030414e-06 3.0193092791881035e-06  2.6848112641860244e-06 -2.3698588773954290e-05 7.7387846949472926e-05  -1.5294862381839736e-06 1.6571012718691170e-05 -5.2317306069941765e-05  -1.7817288065714350e-06 2.3312362216199400e-05 -7.4652446495394778e-05  1.4373499283586469e-06 -1.1102157258049115e-05 2.5686203611519305e-05  1.1094105236005959e-05 -1.3405711351117433e-06 3.5257635360247844e-05  -5.0927304999841085e-06 1.6605537307860867e-05 -5.9606484224599455e-05  -1.8983761464731261e-06 1.9464820298958071e-05 -7.3278592126331567e-05  -1.8451650853222738e-06 -1.3054760849212664e-05 -4.1867177509614677e-05  1.0743343244101141e-06 -2.1287060442890833e-05 6.3799589579520462e-05  -4.6441411214174616e-06 -1.8115573002315838e-05 3.8649381551648882e-06  5.2674324285449760e-06 1.0747311550501093e-05 -6.5252992976708391e-05  -2.2580637890718993e-05 1.1908228799796428e-05 1.2018274421665849e-05  1.7847524533691226e-06 -1.9337487319035736e-05 6.3937003136387805e-05  8.0954572274000162e-06 2.1074174851244081e-05 -5.4453406968583591e-05  -6.8720930691138166e-06 -2.1715757689496368e-05 7.4854165556448337e-05  -8.7616925527074644e-06 1.9530719167050762e-05 2.0466481234213479e-05  3.4647880441882760e-06 -1.1837825761201630e-05 -7.7670897130230275e-08  1.8248493847893321e-06 -2.0732964974332768e-05 7.2246720982446907e-05  3.1449618884413509e-06 1.1172313163193053e-05 4.4864853517566746e-05  -8.6209482846014170e-07 2.3508673948874446e-05 -4.8088647454397825e-05  -1.6573472267378449e-06 2.1106017318738797e-05 -5.6130069128352375e-05  1.1190491919364119e-05 -2.3991801864465389e-05 -1.2952769983926654e-05  -4.2399787347298436e-07 -3.6883246859216146e-06 7.0994374770684692e-05  2.1417854021384625e-06 -2.1918561578091591e-05 1.6770635368104670e-05  3.4225564236284011e-06 -2.2392842078417848e-05 8.6574424401054964e-05  -1.7899324726010674e-05 1.1772437848769471e-07 -7.6037027052419811e-05  -1.0008720076745622e-06 7.2920905812821175e-06 -3.5488693480774036e-05  1.2117849576343484e-07 -1.2270699661448022e-05 3.3315182742903907e-05  </DataArray> 
</PointData> 
</Piece>
</UnstructuredGrid>
</VTKFile>