<?xml version="1.0"?>
<VTKFile type="UnstructuredGrid"  version="0.1"  >
<UnstructuredGrid>
<Piece  NumberOfPoints="201" NumberOfCells="657">
<Points>
<DataArray  type="Float64"  NumberOfComponents="3"  format="ascii">-68.09143603944317 -42.6231092482827 138.2914924533953  38.57174160116087 50.10045375346072 -136.7168345259064  2380.664898913529 -277.2490211304672 -368.4474901376934  3963.757209788606 -472.7412406308476 -535.0944058801775  4816.717859129194 -548.2881453940533 -600.6218692145495  5251.4212833912 -568.7534103381072 -542.8260275082856  5389.412335637306 -573.2416118225989 -420.1788971977706  5257.388535970584 -576.3620416805909 -299.5331458544292  4819.124934235534 -572.44199462283 -219.9502069525018  3939.9645412772 -528.6391338804178 -172.4034499618638  2307.799474864576 -356.012984977756 -64.77510537957582  3042.060738079512 -1337.356248701206 -227.8935354039318  2600.078960447409 373.3405195441549 -254.0580721848107  5305.869826805148 -1376.680611580887 -351.3141405301117  4400.690449612818 -1450.059236406301 -8.829277093609686  4790.126568731476 261.571063761856 -389.7348734308122  4772.955904485792 270.0951986192576 -687.6567906653282  2866.780452616231 512.7587805700294 -615.5664580699001  1361.872048250232 -1121.023711315818 230.5843814226037  4418.66593505514 -1354.712212798751 -409.825654137177  3426.480076596036 -2043.258707713103 -146.7408187775134  4412.21369186993 -2069.340983423499 -250.0963218397665  3327.463899696309 -2576.579196634684 -24.05831207002848  4173.054749111729 -2512.091399754574 -80.85658255703089  2958.25166052752 -2862.430324629866 127.3963657071246  3799.970120094934 -2722.666806149071 94.53385580219744  2383.245830885874 -2928.479760863212 296.587783162987  3145.750575641272 -2740.431109628411 275.6861015299785  1577.677299778159 -2779.798741724338 454.8756472667764  2337.632637762885 -2510.001528796201 396.5364786035703  506.6550264435027 -2397.665000559975 574.3244402070029  4316.328673287809 -2390.237008083662 77.79836805210314  4105.274088370977 308.373215469465 -345.586493237166  3779.907679156456 1061.273539167625 -458.7762945769222  4388.898565736324 936.3316850892036 -520.8771481402954  1219.820204532374 -2026.642046189615 452.1106889186636  3030.164194682044 -2030.607023424521 249.1219927942888  2724.883659166075 1143.067755013815 -397.1816727885204  2263.885752033898 1790.119109489011 -464.4789970901126  5311.377177801206 -1359.098835923884 -230.491613854844  4853.603093704026 -2134.11412043889 -119.8081720312431  5065.949356528816 -1387.18117246753 -427.1845688609065  916.6215438998483 807.3684925087372 -434.4448630070739  4072.060942755885 323.5781956501779 -701.5557060124038  3745.058067226515 1070.818816520268 -756.3176100988892  1844.352668306363 -2757.293790032533 201.826104668028  -238.0532725080877 -2544.193144638572 600.8294631275151  1906.002179718178 -1926.1222001345 44.51061376891218  4349.921613769329 961.2412512368345 -685.5894461358502  3112.696481453636 1668.585247505103 -712.9143244043023  2215.823196607991 1761.975378102299 -734.1577042092739  1447.236556334341 2259.50171319684 -659.8448246042524  350.9625423769347 2321.718189481844 -633.2133546989348  -396.414945713792 2693.763176823025 -533.0566753354467  -1557.143155680968 2652.025871074329 -475.2079288112143  -2106.709469651773 2899.67144566858 -363.1077210932859  -3151.511762883489 2718.057043736841 -285.3998402083337  -966.1898069053119 2852.646906451183 -400.1574248873307  -1443.243973069262 -2034.363453919354 704.7024296572945  -2009.643305336309 -2123.609568784747 683.2496541111666  -3490.957052481304 2814.80027106767 -161.7978405093044  -4314.82669686901 2430.706958107573 -79.85282820142861  -4483.526194623455 2427.985049234675 49.00341848225477  -5059.402335838926 1846.391239342251 120.8723586719505  -5103.900299170838 1783.01833126927 264.5814428059448  -4739.962338402121 1790.58567719435 1.863442546642327  -4428.821253906528 2304.826890199715 172.579103104117  -5252.769467917474 1118.071345938024 206.8351892978138  -4919.697136283334 1575.870562144999 384.8929061078947  -4813.920008291996 929.707128064613 148.3486454052757  -5004.584067329818 172.6214841584344 324.6634350443202  -4096.973726752202 2035.744453975032 232.2891982192842  -699.3141131047443 -1262.24218226848 511.1037226882665  -3127.964593816075 -1520.435630940235 750.5641452825226  -4346.979072851012 -2.486317111862174 301.1330080855194  -4284.047141333264 -710.9275335626509 436.7358103137619  -5298.90844473167 917.039115581857 465.1773345176682  -2587.348413161518 2349.329177129395 -353.3589627435374  -4424.828939757207 1197.556452747652 444.7561251538773  857.6256487313296 1875.166142706979 -348.0580589396831  -4891.091795891797 -449.4487228080082 489.448936368963  -3925.612341576699 749.0196155554405 122.4411916374848  -3385.437109708155 1637.548391085435 212.6638850735779  -3259.262605383588 -924.6248880097306 399.5812444000534  -3053.875226995808 -1520.47988346756 485.0432292484613  -3383.829440664387 2598.446369415778 23.75445023800706  -822.5836879165236 -2523.615297407983 561.7376665075402  -3440.56973634351 621.7325703717303 432.7404267334853  -4372.229315425591 220.9855201796419 630.8170022111755  -1676.157223684714 -1731.195090955501 402.6531849205602  -1447.86450629773 -2182.371042034445 460.7633984345042  -1699.140038176197 -1073.284526648423 301.7523336611357  2355.965959678802 2060.762329641271 -617.8776564510438  -3423.036085093978 -1586.6368891392 687.5739847708339  -4353.756984620039 -889.7913287819071 709.4268404234984  447.5465214298741 2376.623338994818 -388.2388270201483  -1051.487266453876 2413.281823943421 -226.2778965498591  -703.5826548138898 1890.8320646564 -183.9923739492503  -2289.137036665902 1090.551403090104 173.4921785628628  -2533.024099427231 -1320.835936797662 728.4739559691703  1049.611349124947 1831.939769321589 -661.8546078505952  -2704.840984101843 -1896.105255278059 554.1894412454776  -934.5850733988052 1744.293899207471 -426.5693018185299  -1423.707708494949 963.4723411841487 -185.3855617660105  -1327.431696397123 2777.946610207254 -274.258599186828  -1527.096731572875 -355.669430147688 405.2734124280192  183.6977658958634 -2376.760294974363 319.1207943872628  -2988.51810851104 -428.4327443936264 612.3166540717884  -4006.838281282121 -716.6990315097892 742.518123202829  -4875.794390168276 -29.13145727286985 664.2216633502481  -5077.901371044374 -181.5071016476894 579.4452069976786  -5343.59925490521 475.7761276809333 393.0891451015618  -2930.794938029263 1767.63910452902 -207.2403715285647  -3912.892297055018 1957.918244255574 -138.1469822007251  148.2057025758738 -2626.32751773441 381.7118931886928  -776.7542708864596 2287.56303900782 -538.540067657731  1736.864580962095 2195.983305525317 -508.945318393529  5038.935545072872 -1359.986242735002 -116.4465905096952  692.8339646891239 -989.7285409507749 21.33353211120015  1541.402096712789 -2889.5312842141 306.3615972560239  -2507.473877559401 2256.267435253326 -17.6748470862264  5086.927385950698 189.2644969681138 -586.0399257807704  3213.22911635762 1637.010954716996 -543.636405639691  3825.505974863184 1397.269367537523 -626.622481459517  -3959.382623007496 -1231.070065704051 537.8674636317691  -2477.491263136733 2941.575627960005 -230.0653466327299  -3592.407507049461 2764.497891225384 -41.80072494005297  179.1902042717198 -1879.040395578166 247.3955069630229  -1644.200435417924 -103.102209144278 98.893704460073  -3263.679442364034 -117.2413196968557 255.3607842869574  678.8508186904476 2550.036491558309 -545.4503472488586  796.2902653666097 -2823.036276262508 457.6780239818349  3673.089246575856 -2340.417578288264 216.0488680876332  5091.447591792556 197.3180713224514 -472.5122713277561  3214.424711772031 -1312.181192310639 75.29309533029658  -4377.634153738995 -1022.582906045744 618.6663365959929  -695.8711230632809 -1894.305472594353 636.1285242145357  2827.86012095285 1114.57541289608 -722.2372211311351  -4985.783558856734 803.9800551504121 549.2439668899519  1999.112271933052 -2451.90495254554 117.8509678688603  1287.916781606067 1303.816846259902 -305.2479650555424  154.0351315987936 2623.404830174507 -432.3837862826554  -3995.627054601875 2354.823116138839 -166.5516482776932  4882.353256055806 -1976.574419978203 -255.8708602115856  -427.407278152665 875.5328752279711 -29.87952487511367  4604.873822402347 -1949.786444737233 31.47376437089271  -5340.275398434992 1291.039403324365 288.7362419852836  -2397.859536205912 -2066.793678585992 616.4213294757327  -1211.293592810189 -2402.276024936447 514.1743719358504  4688.055087393579 751.5633088210855 -586.4474947646551  -2040.837675863053 1803.709970346498 -2.279683071815572  1612.923334242831 1206.756509825715 -614.3820104535495  -2549.523725766946 635.3937569841719 23.86989902588586  -2694.92435185133 2828.919446093472 -121.7664169716987  4933.238876371967 -1887.548832577037 -65.30848853709858  260.2675869348323 -2744.794276988212 436.6127796432058  -4236.913064715593 1362.593546780831 12.25928597384127  -3212.991542193436 1173.709059363246 -43.02464351706975  -2298.340076169806 2627.790407686799 -109.2916811318426  -3519.035569320818 -1569.171764226013 611.3550660924293  -11.01516627201859 4.294665967026382 0.6429950737271878  -1950.25144257961 -986.8683520813756 459.9575173497697  3276.683459698854 67.47300593065575 -406.5939438519761  -1792.058685981634 1562.481537046819 -100.0987191936709  2821.290703546097 -1331.53029003701 -4.57395487802184  -1850.075058536886 422.9208846931914 70.11507153417838  -3539.130576520363 711.383029373414 263.2891482034542  276.88836497642 1450.365036002464 -393.7291499763252  2683.442359088882 -1097.519022029818 -124.1106037859044  -1985.173087303644 101.5290257388205 282.6218682818903  1531.069240353986 895.9540422698108 -338.8926462130794  -313.9085066380151 -1219.769389036807 262.8335784537601  1074.408040478292 -1923.276230425364 296.8200708108441  1416.036628345283 337.3642529287925 -320.5139990982097  -193.3368168667287 -1408
[...]
<PointData  Vectors="Centrifugal"> 
<DataArray  type="Float64"  Name="Centrifugal"  NumberOfComponents="3" format="ascii">-2.3349948729057138e-06 -2.1183110612832901e-06 1.0764062447985382e-06  1.5143143717893165e-06 2.3313745499741333e-06 -1.0186725434809706e-06  6.6695667197275399e-05 -7.0151549569925539e-06 -8.1403691812586126e-06  1.1075907334898201e-04 -1.2602968161427812e-05 -1.3199308365802906e-05  1.3436816770784232e-04 -1.5064461637570146e-05 -1.6088137096395907e-05  1.4602538653830713e-04 -1.6614341513373276e-05 -1.7402538947863416e-05  1.4932102730337338e-04 -1.7912083900063723e-05 -1.7486360147806361e-05  1.4525974554100156e-04 -1.8810436860578143e-05 -1.6546897636289779e-05  1.3299704904061181e-04 -1.8799439336958802e-05 -1.4622071416659714e-05  1.0878384826859655e-04 -1.6954134013976590e-05 -1.1431943212740520e-05  6.3639412990071576e-05 -1.1393023466656330e-05 -6.1940548539348264e-06  8.5557487297403025e-05 -3.5659658297900422e-05 -1.5167892854528338e-06  7.1397713184560678e-05 8.1096014588294657e-06 -1.3943466843794788e-05  1.4781465125137625e-04 -3.8557178217593288e-05 -1.0337676830422918e-05  1.2190590243533153e-04 -4.2043819175133465e-05 -5.0958112679597941e-06  1.3178430883447828e-04 3.5876271628773510e-06 -2.1926325282257232e-05  1.3245392816493910e-04 6.2696443280633317e-06 -2.2929547631240448e-05  7.9884288447738008e-05 1.4236037919239569e-05 -1.7329191227937483e-05  3.7694159573008197e-05 -3.1818514472354711e-05 4.7245175469673304e-06  1.2381928550918213e-04 -3.6379470988795184e-05 -7.2930917177978695e-06  9.6638379027487881e-05 -5.4559015688148728e-05 3.0678857229174218e-06  1.2394999271761074e-04 -5.5638512626549762e-05 -8.6590357299387498e-07  9.4153803358190522e-05 -6.8838787958665961e-05 8.2393575260560682e-06  1.1734748711768255e-04 -6.7843839932548813e-05 4.2586751135112024e-06  8.3870975223752781e-05 -7.6787881438282140e-05 1.2517780068362339e-05  1.0676958256633002e-04 -7.4093007453799727e-05 8.0143841688447053e-06  6.7624321248197154e-05 -7.9094042123086688e-05 1.5844910803433368e-05  8.8254437087663317e-05 -7.5181852049725165e-05 1.1290726168230501e-05  4.4855416449455843e-05 -7.5617604605203621e-05 1.8261812474399381e-05  6.5454841321160092e-05 -6.9340738079962135e-05 1.2920783305509104e-05  1.4696391510225348e-05 -6.5613773402107829e-05 1.9655621175502333e-05  1.2048522083636810e-04 -6.6269443407811104e-05 3.2381225681718550e-06  1.1287880759187639e-04 5.2853378677155712e-06 -1.9521505715176927e-05  1.0347106101710223e-04 2.5552345601557811e-05 -2.4827186287356585e-05  1.2047804490069317e-04 2.2136567284586411e-05 -2.6358240484286551e-05  3.4135551562431610e-05 -5.6208696683897348e-05 1.3449767462720058e-05  8.4288624976739960e-05 -5.6979147297128885e-05 5.8203220676291224e-06  7.4359121178458866e-05 2.8463963715080873e-05 -2.1223643224606099e-05  6.1212602630623662e-05 4.5869720972851974e-05 -2.4983421765105565e-05  1.4747621614908356e-04 -3.9114362263434865e-05 -1.0097912497357180e-05  1.3556718608058777e-04 -5.8905422984807139e-05 -1.5991652944421188e-06  1.4157852908118813e-04 -3.7888453349914582e-05 -9.5808281134471051e-06  2.5627782655801141e-05 2.2669393145550507e-05 -1.1619882065714404e-05  1.1332618984089399e-04 8.6324479702879614e-06 -2.0712444465510489e-05  1.0365581766156642e-04 2.8279719881964801e-05 -2.5769341238957210e-05  5.3073979027492416e-05 -7.3319108216435522e-05 1.6199795365609978e-05  -5.5236546277289506e-06 -6.8551671094252368e-05 2.3819131870332908e-05  5.4288646839199641e-05 -5.1222826082493363e-05 8.6111440250783145e-06  1.2001820738968838e-04 2.4164915923649914e-05 -2.6964995404632792e-05  8.5473230794800480e-05 4.3759599615458501e-05 -2.8092350806575390e-05  6.0978277112121239e-05 4.7438432781613866e-05 -2.5471760067666758e-05  3.9091268508417475e-05 6.0321755666026010e-05 -2.6342886644763522e-05  9.0146064566973679e-06 6.3081723085044384e-05 -2.2536854143370103e-05  -1.2231722750016784e-05 7.2572600135332552e-05 -2.2372979354800028e-05  -4.4052121751259666e-05 7.2547515792227135e-05 -1.7360307069462078e-05  -5.9789910899529727e-05 7.8559245415677043e-05 -1.6897954155924916e-05  -8.8345192343981653e-05 7.4706848193643521e-05 -1.1117426657497339e-05  -2.8486178958117745e-05 7.6209401140396143e-05 -2.1034268644591130e-05  -3.9446032487313751e-05 -5.5038207670832859e-05 2.4629797420322276e-05  -5.4692895356357365e-05 -5.6373316161853747e-05 2.7474595735030139e-05  -9.8202852411329719e-05 7.6561237769921266e-05 -1.0187981585546552e-05  -1.2048858918073681e-04 6.7301238880300806e-05 -3.5830281525277476e-06  -1.2558213438878719e-04 6.6392847464459919e-05 -2.4778646779979400e-06  -1.4081165303896385e-04 5.1932899630479382e-05 4.7582773635533005e-06  -1.4249739449803184e-04 4.9218285220834617e-05 5.9322146594707712e-06  -1.3157006818617501e-04 5.1095253456915379e-05 3.5853240985066593e-06  -1.2440794932430701e-04 6.2213242008771932e-05 -1.2632321840485131e-06  -1.4547568439457609e-04 3.3176712924649547e-05 1.1771164932146240e-05  -1.3767098036493428e-04 4.2787925000977191e-05 7.3260061344716943e-06  -1.3304024424506548e-04 2.8357335399879873e-05 1.1428971863295489e-05  -1.3794184363753284e-04 8.1331682553767756e-06 1.8970686751623610e-05  -1.1524186058101832e-04 5.4533550025790750e-05 -1.3366059537059595e-07  -1.9410518321615682e-05 -3.5008635312585926e-05 1.4773177247670657e-05  -8.6226015401243510e-05 -4.0326473689868851e-05 2.7061360497176934e-05  -1.1969320022264915e-04 3.0775043932149828e-06 1.7793379521666752e-05  -1.1758544917544703e-04 -1.5917584493420085e-05 2.3821276558601450e-05  -1.4747049954432447e-04 2.6064283322975446e-05 1.4466055783530878e-05  -7.2223262542926950e-05 6.5271537999210468e-05 -1.0494009709639012e-05  -1.2391914895803601e-04 3.2151901676896150e-05 8.7241468650867795e-06  2.2307395338968696e-05 4.8866447155282348e-05 -1.9868221792575469e-05  -1.3467943257412869e-04 -8.9965545497881597e-06 2.4192487934020101e-05  -1.0848433715736141e-04 2.2883145941458680e-05 9.3998634237048301e-06  -9.5249636895693081e-05 4.3770769081651428e-05 3.2551439436630783e-07  -8.9222048497209389e-05 -2.2305061445784730e-05 2.1499137911626796e-05  -8.3181762780942822e-05 -3.8243550914769560e-05 2.5885259619817307e-05  -9.5717860818912739e-05 6.9463497120491333e-05 -8.2025307869119600e-06  -2.1338688086324889e-05 -6.6959077065371493e-05 2.5773117273973310e-05  -9.6290239572286977e-05 1.6511394210398782e-05 9.6153455110855153e-06  -1.2194156005875496e-04 6.0187684961586958e-06 1.7162263355232427e-05  -4.5023843114665484e-05 -4.4640396328252836e-05 2.2025910338505685e-05  -3.8440274431468406e-05 -5.6748641809005355e-05 2.5044262721686003e-05  -4.6110826733367580e-05 -2.7251413480107003e-05 1.6375190079886243e-05  6.3965612176380404e-05 5.3810431807755644e-05 -2.8074851672514511e-05  -9.3943776297284083e-05 -4.1091848511718885e-05 2.8531343892237066e-05  -1.2030695588448198e-04 -2.2560359305417597e-05 2.6473215497240900e-05  1.0632748266467870e-05 6.2325589827258660e-05 -2.2538186986953024e-05  -3.0915389660311902e-05 6.3852409958766530e-05 -1.6515232703013912e-05  -2.0917157125139417e-05 4.9928787048621670e-05 -1.3426120543031404e-05  -6.4498049087840731e-05 2.8932861287136761e-05 4.5691843085143785e-07  -7.0175438881848505e-05 -3.5897961899376318e-05 2.3054523159693789e-05  2.8808401178949140e-05 5.0108446545140249e-05 -2.1306420075774634e-05  -7.3445858807397280e-05 -4.8699947050366225e-05 2.7854832655833346e-05  -2.6091621612116881e-05 4.8536354636839308e-05 -1.2146178876405062e-05  -3.9351213422081511e-05 2.7568585158692908e-05 -3.0410830153241670e-06  -3.8725718770445919e-05 7.3765295212248333e-05 -1.8605671370087676e-05  -4.2745126244897604e-05 -1.0292162208465232e-05 1.0168083009468472e-05  6.8469851800468958e-06 -6.2576579260464511e-05 1.9873244027859041e-05  -8.3300214322519210e-05 -1.1933374707157427e-05 1.7095491279047904e-05  -1.1119810640588768e-04 -1.8930676732352966e-05 2.3825517847134267e-05  -1.3547888680641955e-04 1.1008448695619192e-07 2.1269398949826905e-05  -1.4046638965188981e-04 -2.7617260828165818e-06 2.3015219600872326e-05  -1.4784148550844398e-04 1.5626351710730560e-05 1.8018919581326396e-05  -8.1400992020408473e-05 4.9899579815411386e-05 -3.9042773632891967e-06  -1.0869331012273760e-04 5.5381340014483315e-05 -1.4473584832540624e-06  5.9600050619366297e-06 -6.9315332081282472e-05 2.2268806404613564e-05  -2.2057415140373926e-05 6.2902237889716283e-05 -1.7590184416425726e-05  4.6489070157147014e-05 5.7113097677087495e-05 -2.6432082864681317e-05  1.3960853475403220e-04 -3.9721139950457542e-05 -8.6574484825419332e-06  2.0087963359245836e-05 -2.5938027248486651e-05 5.5246465087280792e-06  4.4580612610943117e-05 -7.7108805417059009e-05 1.8804269688498142e-05  -7.1219526042976496e-05 6.0074439602570560e-05 -8.9119244523596810e-06  1.4072793021555229e-04 2.9991264249442181e-06 -2.3135830476838084e-05  8.7602591999072328e-05 4.1446840789619652e-05 -2.7652937762878464e-05  1.0492792418810410e-04 3.5313750299163360e-05 -2.8324327126220973e-05  -1.0845083689070937e-04 -3.0236304705262171e-05 2.7178481841168449e-05  -7.0467673345035655e-05 7.8998679180303393e-05 -1.5365820923576617e-05  -1.0136703406215663e-04 7.4443220400531625e-05 -8.9812705849225077e-06  6.3580941656817311e-06 -4.9475988095593529e-05 1.5564176748670789e-05  -4.5082969462942663e-05 -1.2797442533880962e-06 7.5184749881095201e-06  -8.9828690812954266e-05 -8.2869547352502712e-07 1.4404459189250056e-05  1.7322405026056610e-05 6.7674806797776607e-05 -2.5381111073510208e-05  2.3593251897001748e-05 -7.5718238142479555e-05 2.1639324151754816e-05  1.0234767108707681e-04 -6.5322134694406367e-05 5.7733967466678850e-06  1.4040300861208930e-04 2.2636904475884666e-06 -2.2838514309442315e-05  8.9055934248750756e-05 -3.7738506844235219e-05 -1.3709981369025245e-06  -1.2043662371113210e-04 -2.5121063633194070e-05 2.7350907322971462e-05  -1.8982750019956290e-05 -5.1920975440867745e-05 2.0367994366538057e-05  7.8457381947791304e-05 3.0283516324543374e-05 -2.2477330166548491e-05  -1.3911029872138036e-04 2.2129143086955669e-05 1.4468726017805192e-05  5.7223589068735249e-05 -6.5156184494265186e-05 1.2814332597889767e-05  3.4613283996363280e-05 3.3603480410447368e-05 -1.6693626440285818e-05  2.4807936757361534e-06 6.9267668479129757e-05 -2.3580301705531301e-05  -1.1135223068440005e-04 6.5694169092669877e-05 -4.4818371565724754e-06  1.3667245372183705e-04 -5.3867163455598311e-05 -3.4597479463835240e-06  -1.2669817980982700e-05 2.2796172384107182e-05 -5.6394071611202827e-06  1.2796339569739012e-04 -5.5194682997610786e-05 -1.6456662801100874e-06  -1.4840096076103226e-04 3.6963437681902384e-05 1.0963452692328544e-05  -6.5094580789641543e-05 -5.3895938406579756e-05 2.8281027109647300e-05  -3.1911425158227092e-05 -6.3017961816431441e-05 2.6116403903612283e-05  1.2912695555816799e-04 1.7646037685810059e-05 -2.6215035481580238e-05  -5.7970210151203828e-05 4.7974428704892046e-05 -6.9446258833921936e-06  4.4793077206145038e-05 3.3282812764047204e-05 -1.8187207693589104e-05  -7.0433794046323033e-05 1.9060755560415466e-05 4.6954977885299032e-06  -7.6668906599603148e-05 7.5559693813853971e-05 -1.3239236735375535e-05  1.3721024735471277e-04 -5.3260297185002920e-05 -3.7474977809246281e-06  8.9569882777166988e-06 -7.2887349918014413e-05 2.2993359743355657e-05  -1.1734026176542560e-04 3.9606514237740768e-05 5.1937766710199933e-06  -8.8962517710361349e-05 3.3992438192328250e-05 2.6104550270681288e-06  -6.5643130580551914e-05 6.9891618060919676e-05 -1.3075601141376911e-05  -9.6290162912045075e-05 -3.9903386100205776e-05 2.8502465364101904e-05  -3.0838999043383068e-07 1.1685235502231700e-07 9.3782749887773706e-09  -5.3679866397668099e-05 -2.6054607671867915e-05 1.7164865233631026e-05  9.0830723527708215e-05 8.0288879849733994e-07 -1.4553405270354156e-05  -5.0497767027077691e-05 4.2395024363994231e-05 -6.2518573555818945e-06  7.8668758509857788e-05 -3.7061505741990356e-05 3.5900333490707912e-08  -5.1264968944801810e-05 1.2439422371625487e-05 3.8976482510585956e-06  -9.8440141634724117e-05 2.0282282913747462e-05 8.6909948354890068e-06  7.1961553204201541e-06 3.9317327870642125e-05 -1.4294779679223354e-05  7.5068697409551516e-05 -3.0022364265256320e-05 -1.7545692383179210e-06  -5.5353420390660146e-05 2.7938870417186079e-06 7.7698571025937798e-06  4.1899959757240479e-05 2.3317583932610958e-05 -1.4395954173187778e-05  -7.9985804627015496e-06 -3.2400933155157144e-05 1.2105430887053841e-05  3.0635775852861951e-05 -5.2148949178246969e-05 1.2640999150946164e-05  3.9413478953512393e-05 9.2797990504142468e-06 -9.3051978328959847e-06  -5.0058374984762619e-06 -3.8433694433530844e-05 1.3654484575278724e-05  3.8928245654103529e-05 -1.1859285685585361e-05 -2.1517224956887132e-06  -7.5704777091516697e-05 4.8244383117992417e-05 -4.2459555155676546e-06  -9.0649252839002304e-05 -4.6763747007289506e-06 1.5821672299586031e-05  9.7542652114662544e-05 -1.2067211753576265e-05 -1.1300177733542782e-05  -2.3804766291021161e-05 2.6223449529898405e-05 -5.0356755778467828e-06  4.1554132040549844e-06 4.9176462676574568e-05 -1.7117318187485378e-05  7.4430448060054964e-05 2.0909814606558317e-05 -1.8705803257615321e-05  6.7564227152984281e-05 3.1994868207979860e-05 -2.1337149080254685e-05  -9.9878914393581166e-05 3.2708819361508796e-05 4.7569789887402000e-06  1.1393659224170408e-04 -3.1127842707782098e-05 -7.4970729772979916e-06  -3.4801979399031305e-05 4.1134321322747025e-05 -8.2982033628163574e-06  -1.0313156571494280e-04 -4.5789254317350119e-06 1.7752093537177578e-05  1.0707755054977758e-04 -1.0457993149091908e-05 -1.3338446377308231e-05  8.8375707261319192e-05 -5.3457678526667876e-05 3.9986077794318992e-06  -1.0542290378641730e-04 3.1246188949045888e-05 6.1185360683400515e-06  3.4063201014867541e-05 -2.1150436259651152e-05 1.7239735961589598e-06  -2.1751946090643913e-05 -4.7539097454204212e-05 1.9336484325610510e-05  -2.0013507577335441e-05 -5.0638973911600602e-05 2.0100895805415944e-05  5.5760008424164369e-05 -5.6901432858774455e-05 1.0280892072812609e-05  -9.8733930955860325e-05 5.4226120747868219e-05 -2.6268761049591491e-06  5.1131952993375839e-05 -5.3825050983698221e-05 9.9787855233588669e-06  -4.1083882558389129e-05 6.0162768568996671e-05 -1.3680815282335643e-05  -5.9651832686271540e-05 -1.2419659336260198e-05 1.3539202849782272e-05  9.6428441353411045e-05 1.3312011218662588e-05 -1.9621672483514401e-05  6.1771331995705982e-06 2.5689061967356869e-05 -9.5719080975441982e-06  4.1524946246545201e-05 9.0935633169221961e-06 -9.5749103879720687e-06  </DataArray> 
</PointData> 
</Piece>
</UnstructuredGrid>
</VTKFile>