<?xml version="1.0"?>
<VTKFile type="UnstructuredGrid"  version="0.1"  >
<UnstructuredGrid>
<Piece  NumberOfPoints="201" NumberOfCells="657">
<Points>
<DataArray  type="Float64"  NumberOfComponents="3"  format="ascii">-0.03985161836849556 -0.04578513524395187 946.5579051607581  0.009425242320653006 0.03890800445308958 -946.5668508426221  1780.481757811003 -0.3718742149539057 -901.8113705484848  3386.006528927825 -0.6919128078781507 -768.8413921812692  4659.266845118686 -0.8599391238940148 -560.2740318092333  5476.225736222485 -0.9150320967977884 -296.1696625771026  5757.6368611461 -0.9330702388831371 -2.856314991307409  5476.220498803735 -0.9316280971315215 290.4714766236895  4659.243720509745 -0.8814729369035025 554.827091808864  3385.970760028915 -0.7371894465965305 764.3633556907224  1780.447774552478 -0.4331846979340065 899.1927575997263  2255.778111180653 -1675.632973016454 -822.8487091115828  2240.521542828279 1300.697517050967 840.5242257148357  5480.768612078648 -1491.48427679066 -142.0435539255381  3947.507902611559 -1627.712067041057 631.8293565605703  4985.065139739733 1506.852572736257 394.7300389138902  4964.39277796727 1506.83155071426 -410.2766932134496  2518.09537105598 1498.84901904299 -816.5528182885208  868.2047309516305 -1499.762483928107 902.0677158548842  3921.968883933138 -1499.900062077402 -646.1884654561339  2730.401799749006 -2941.949127273792 -665.1599443790719  4055.769454765114 -2883.342041554867 -458.9256205097261  2781.239443910823 -4121.048945471493 -438.7020824318686  3917.94754437682 -3867.405267393461 -215.7332587701069  2458.716877132477 -4905.639358981596 -181.1608805964595  3500.456962766498 -4402.673082771141 49.34134344629846  1839.070324667553 -5240.899242851993 88.64985131827467  2667.385996994967 -4553.672556113468 323.3114618511871  961.4146414574271 -5102.35792000947 345.091821282202  1707.586709216108 -4162.760318519143 565.643665521114  -65.54565284408947 -4471.086630738855 568.1142319003072  4090.09161025839 -3577.577480076399 271.5822442622918  3921.360503195582 1498.322681893472 641.3401080174062  3972.342101205959 2900.83233300391 470.0838735155655  4810.043870093635 2779.285454793391 210.0970389454091  639.2601275782138 -3322.926442806177 756.1501913987991  2339.086424949073 -2914.170661336748 711.6324698186999  2729.041530400097 2773.077671327183 682.4309255248676  2628.899535219533 4056.365252841305 475.981383484844  5491.26523878235 -1455.166796891444 139.3958651016946  4841.753567673999 -3005.978628944936 16.82126032650925  4996.724678028128 -1509.965545427765 -396.2354174199098  867.5820050840889 1499.363464859501 -903.2967190907951  3882.392725498891 1460.783987728399 -658.5971177923783  3941.977528917445 2885.268454355234 -490.4943543344056  1193.72740439685 -4950.252991933925 -378.4584411046227  -833.7814587905283 -5162.574393215003 327.9729442049115  1165.354269699226 -3017.442588594844 -769.010922297395  4777.197255485528 2812.474359316852 -227.8339082973704  3572.104840115854 4063.528903936207 -273.8542211111953  2536.599183464084 3955.451453015612 -524.4549421868073  2002.078781465156 4925.61210040834 -294.8987439403283  884.1945928126117 4625.931035535932 -510.3190102160646  258.1732007685005 5332.869682642807 -267.6555558288797  -907.990898909948 4759.851662437663 -470.6067594869987  -1497.524064335763 5237.741160278213 -202.1715260101579  -2638.733378074485 4473.846501459755 -360.4907044457505  -288.7194558262848 5546.553152427056 12.13790436523111  -1838.523151354275 -4297.657187385062 525.0254699096791  -2539.322445115698 -4751.917028030692 263.3385212436272  -3097.788243049809 4648.900269426776 -99.60672768574413  -4091.867625827455 3636.958155540449 -246.6023238265034  -4358.368065077837 3628.752789256262 20.54154837743964  -5112.416107367782 2394.58341741917 -152.9468534607594  -5182.442329173111 2272.976738715325 143.2818956566643  -4542.419134780137 2269.899300152824 -435.9044247563821  -4191.510739166665 3358.144175614765 306.242149135457  -5408.5392267648 993.2820816103527 -276.3488042983873  -4788.151413074275 1868.84624138026 420.3501844544036  -4604.731289069822 638.0424178332753 -557.3136890242124  -5169.815277256303 -719.8701897939336 -395.7860316570615  -3562.760157796704 2816.756655314879 568.3044044418764  -795.3294949448579 -2302.364310124597 855.7543484896404  -3468.73471904857 -3674.875438429894 429.4211153491196  -4137.840416059636 -975.7039584451977 -634.4300494846919  -4469.37984528375 -2290.863018393882 -447.3922774953832  -5532.523358504894 630.7190546350793 242.2065088838663  -1926.080519682275 3705.80250082127 -634.756945391974  -3940.689388495663 1203.368829103716 661.3584486447598  1237.999808247135 3743.933289993083 664.6219736939195  -5330.002501555954 -1876.239387224568 -156.3638853620942  -3353.21669786416 390.8153592774555 -765.92844618268  -2612.825709966184 2143.663334077369 760.2755136117167  -3221.198144396011 -2465.025851398895 -658.7152646404322  -3372.039270063703 -3669.977532391707 -439.4708234407423  -2843.08804813891 4133.984009974395 424.283088459171  -1450.250680934066 -5362.950929681739 67.16477448490959  -2751.601536180155 361.4454907770231 831.3564812286367  -4064.636795480596 -520.4678996722741 668.9701898292481  -1946.386407747419 -3681.217742230391 -627.9311925118479  -1952.326022192022 -4692.324857389095 -386.6013351344099  -1677.717247660026 -2331.389710625287 -810.0177970295158  2918.442255800722 4784.395766788247 -32.98897462868904  -3925.26882234769 -3941.301710403336 174.2345509730642  -4726.926849529606 -2661.57581018385 299.6224044076422  1030.420328120154 4819.586954634191 434.1727643376075  -373.1108849716657 4347.489253740154 582.3000726190936  -129.6684620792409 3276.385782931093 760.7658061163988  -1561.069627752137 1384.812034873365 879.652293170298  -2601.503251753257 -3005.903068164082 677.7942016724763  1357.451149567509 3660.284088561879 -682.6375787256878  -3226.465828618615 -4436.901611451561 -200.9660019284819  -427.1562393871676 2808.710299371419 -817.9371505660832  -945.7121484756337 1204.622976177162 -912.216970223697  -641.5369316119147 5188.650762111665 316.9072384139587  -1217.171038875091 -852.2323893343095 916.0644517584803  -415.3573459043559 -4552.234120908214 -533.7754461265287  -2629.600843048953 -1369.207191507223 813.5612115823549  -4052.694353424708 -2203.907606595578 563.8277051109504  -5045.08804246067 -1058.705917357213 423.9742520864518  -5519.266748823751 -1374.514810830104 137.3354355819012  -5732.816702231787 -177.9698415477741 -79.4583451654177  -2212.969523105727 2386.698054182658 -776.1958688587205  -3355.536178713439 2639.735202376128 -626.6056972607993  -488.8608547932305 -5227.857522609324 -304.6397572200792  -196.6744264922783 4104.95491408254 -643.0022773139028  2295.188483448346 4882.687108556426 241.5619631264543  4963.325326640764 -1443.29665802777 412.2131056375044  288.2200983514569 -1573.72860541444 -904.6798932668676  910.9039765740835 -5417.772752783312 -141.1508499856468  -1754.578718547246 3549.27536141507 666.543401092606  5503.64488603455 1396.631396119099 -147.8897175359765  3678.006297889207 4026.552623666379 238.117175952204  4338.894021663072 3649.115749065191 -16.59787694618262  -4395.412632842351 -3300.34862805781 -234.3293488757052  -1908.399907339908 5223.264740068951 69.63630529218106  -3201.189781197823 4504.906843942087 170.7183707649976  -311.7351372241358 -3396.848956197125 -743.4489031596503  -1342.490492216795 -619.7810906013005 -912.7178402995237  -2829.834195765798 -994.4910685084391 -804.2625672072633  1329.256234110252 5396.449178813156 -54.54117095133179  156.66731604914 -5518.065592186314 110.8989867707539  3180.619522535068 -3510.58139849314 518.2133943420397  5513.347447797819 1414.510622790766 123.4127001137741  2520.101968620184 -1489.155244588478 813.5807800810675  -4869.217691012241 -2959.405763225304 28.7952604581285  -1030.312463524593 -3665.465257325292 697.1167113198298  2805.857266724462 2688.464765393708 -694.1902637530778  -4934.09964287509 443.6858316536023 485.6453161005145  1293.630365256156 -4137.152987953988 -591.9458886936059  1410.498101285748 2667.930561158831 793.3605766609875  819.37319649446 5372.45024935315 193.5123055925852  -3582.103970341804 3483.079121923533 -447.1233376805321  4815.836812647117 -2678.181053369609 -247.8561358771953  -88.51096579116539 1445.38256720252 911.9577540534375  4362.433015444801 -2606.770462644927 431.3069367927286  -5590.435083434283 1324.691138465405 -20.12471299060038  -2975.200240756319 -4754.084973109631 15.3791763205737  -1816.627377212502 -5189.218148043981 -151.0923037911627  5164.81826756626 2452.801676031451 -11.58711200456649  -1286.382256689486 2737.777685845443 794.0589350504334  1599.565865198411 2485.673110752419 -809.8454043850189  -1942.512094423689 408.729240506317 -887.9609543323076  -2105.970044102438 4860.306573454811 297.5038242770315  4897.844597648865 -2490.997901886806 261.0286001170358  -391.3804302187795 -5513.361425808989 -89.53970473644436  -3694.266057082955 1445.152798567421 -683.8483803506525  -2525.288115945861 1228.24316998882 -825.3117679128276  -1611.109833591341 4469.394693038875 493.0362362437158  -4047.808131618342 -3936.494238297777 -47.14777710467882  0.001812030756599644 0.004315563093705638 -0.002251268353890803  -1836.647691573676 -2173.903715230159 30.48473587642153  2777.757824231242 847.3334039505462 -7.402136068314286  -1107.198295246756 2285.726803055327 206.2390710167918  2071.023474451234 -1620.631656676692 190.6430865386123  -1349.267248021374 237.5148594406741 -420.8838532157511  -2857.247038558027 432.193612903399 1.724188703631734  545.3416620851708 2585.032886570488 -185.1706524397023  1930.161679908521 -1274.403541073189 -283.2729410942862  -1501.223781022594 -241.7446959697505 410.3300844642955  1439.061684666171 1923.232891088139 326.0586218851881  -531.0762710274214 -2195.058663233169 -354.7243565127668  476.0310806976925 -3170.245167625723 5.674769312501147  1146.044442795815 841.7609272807514 -
[...]
<PointData  Vectors="Self-Gravity"> 
<DataArray  type="Float64"  Name="Self-Gravity"  NumberOfComponents="3" format="ascii">-6.0353748424889708e-06 -2.2187990163064409e-06 -3.0766692624067742e-04  -3.5962512560334366e-06 -2.7224993209677487e-07 3.0657224149646764e-04  -1.3179316288143891e-05 1.2426467760052192e-06 2.8766117034369454e-04  -2.9386594423483579e-05 2.6931165500019814e-06 2.6040026455284820e-04  -3.2999121903554593e-05 1.9781822004945620e-07 1.3961772720028469e-04  -4.2748727073102094e-05 3.5667620299239449e-06 8.9223015696321260e-05  -4.8993378042631633e-05 -1.2977623128345917e-06 1.8935008900688798e-05  -4.8510832538397815e-05 -3.0169315851091160e-06 -7.8432157365043004e-05  -3.3709939751737011e-05 3.6087035756048641e-07 -1.5050595308132688e-04  -3.0143248924926481e-05 6.4182727643241412e-07 -2.5423130066657535e-04  -1.5754084705569333e-05 4.2208017709945299e-06 -2.7783668881139031e-04  -1.4687855933132827e-05 1.3657813134952171e-05 2.0458865773609875e-04  -1.9422325042496582e-05 -1.3441123211814616e-05 -2.7135327395262767e-04  -5.2408808261088860e-05 1.6106399251776772e-05 3.8116745261512563e-05  -3.1639419586375301e-05 1.4743942794202121e-05 -2.1582077073123283e-04  -3.6401433137810889e-05 -1.2749828368440597e-05 -1.2760917241914639e-04  -3.7585988064084056e-05 -1.3686640494992151e-05 1.3633491958950185e-04  -1.8487727895758378e-05 -1.1961515887248028e-05 2.4572199759690186e-04  -6.6995792959680453e-06 1.1359880231438439e-05 -2.3756743375132579e-04  -3.4283492516150168e-05 1.7675955257142159e-05 2.2046481201409181e-04  -2.3220790384765108e-05 2.8922033868088891e-05 2.1608046473778155e-04  -3.7292194649847179e-05 3.2725127354051027e-05 1.5069156472567667e-04  -2.3072665869154400e-05 3.9493722703026177e-05 1.2002143622706075e-04  -3.5614844857183658e-05 3.9606344663745908e-05 5.6241207536637695e-05  -1.8563250804272412e-05 4.2924965159393289e-05 5.6655923787745544e-05  -3.2912277288100155e-05 4.7722139689819670e-05 -3.1072761669523388e-05  -1.8944700542257437e-05 5.1056823839766379e-05 -3.2377275808993542e-05  -1.5261246499945667e-05 3.1368423515858405e-05 -7.4647963428755264e-05  -6.9103322368262486e-06 4.5665917551501166e-05 -1.0843640774181713e-04  -1.2837009331436447e-05 3.5114504240410741e-05 -1.4513058436400102e-04  1.4094080928969727e-06 4.3860090248596692e-05 -1.7237354805197395e-04  -3.5396082640387891e-05 3.8608417449069527e-05 -9.0704884964464927e-05  -3.9855899501415122e-05 -1.7981812022044199e-05 -2.3235365533744534e-04  -3.3603650681045465e-05 -2.9741439760413115e-05 -1.4196210184064468e-04  -3.4954643941985717e-05 -2.1098549971551251e-05 -7.8433846767670439e-05  -4.2792199613695718e-06 3.0864873836822022e-05 -2.5447454217345276e-04  -2.0162890294343989e-05 2.8464578235985200e-05 -2.4378520945991325e-04  -2.8729488859010858e-05 -3.0795589072819535e-05 -2.3115350492285518e-04  -2.6220027782407403e-05 -4.0734194232990775e-05 -1.4090761179320123e-04  -5.6925989258328467e-05 1.2638702302260360e-05 -5.4156354314453287e-05  -4.5731097110134759e-05 3.2005321159917300e-05 -1.1607561008104505e-05  -4.3645878744954982e-05 1.3199265481548558e-05 1.4278442441782987e-04  -5.0413746226580457e-06 -1.6364037069674768e-05 3.0970150426013387e-04  -3.5965453939080632e-05 -1.4556902385403569e-05 2.2557029944152200e-04  -3.3616495717270873e-05 -2.7778192466121024e-05 1.4734236024254271e-04  -9.7787275849588313e-06 3.6678227224514259e-05 1.0964820094127816e-04  5.4554118498620131e-06 5.6015665445778299e-05 -1.2191310245458740e-04  -9.6511506819752214e-06 2.6956112819620803e-05 2.3120741435129845e-04  -4.2178094106939657e-05 -2.6063998511130374e-05 8.2068137147229596e-05  -3.4717157452475394e-05 -3.8466851965542691e-05 8.5355687650893528e-05  -2.2162939799338444e-05 -4.0475458502798318e-05 1.6246007844350705e-04  -2.2866934885449668e-05 -4.7853474297291042e-05 9.5459512660686779e-05  -6.7890814403987615e-06 -4.8407253728688626e-05 1.8526960669627086e-04  -2.3472240949015002e-06 -5.1130162324798493e-05 9.3109225051739511e-05  9.2419749148414866e-06 -4.8353728357553506e-05 1.4359735933432041e-04  1.2839177707172579e-05 -5.0196622409556049e-05 5.1910838065378687e-05  2.0970153887624219e-05 -4.4827830524440626e-05 1.1808961113400794e-04  2.7323683732065433e-06 -4.9587907400196084e-05 -1.2941436900846166e-05  1.6647552566918096e-05 4.1914024433573192e-05 -1.5879259485459028e-04  1.5130448847605629e-05 3.7114556264706088e-05 -6.8436462064930202e-05  2.8066927524926475e-05 -4.6189401330813344e-05 3.0792150679992429e-05  3.7550947311072906e-05 -3.5855221876202573e-05 8.2426690563493636e-05  3.0631355991775987e-05 -2.8266924162274258e-05 -1.7286055914658371e-05  4.8299851689975902e-05 -2.7506108583521871e-05 4.6984549403886117e-05  4.3181652065389699e-05 -2.1044450826068229e-05 -5.2764783700511860e-05  3.1383444250919161e-05 -1.4504896669905137e-05 1.1425144208902372e-04  3.9532065855115781e-05 -2.9322353596458555e-05 -1.0182205512560132e-04  4.1915910262400877e-05 -6.7495546221075974e-06 8.5458272144702519e-05  3.1361128448852723e-05 -1.2932946921230264e-05 -1.0964878485491378e-04  4.2026377634148826e-05 -3.0375662231789200e-06 1.6379980732978799e-04  4.4439580894141199e-05 5.8588420644521714e-06 1.1430006384118151e-04  3.6708904749906804e-05 -3.3550880341581773e-05 -2.0403259523663490e-04  9.6958380053393859e-06 2.3086275857436949e-05 -2.7316112996044633e-04  2.9227352623791172e-05 3.7372460349446884e-05 -1.3788006164800346e-04  4.2570842665485066e-05 1.1995649828885383e-05 2.2695982378896016e-04  3.8502729445615461e-05 2.0630779492918770e-05 1.5865793902239427e-04  5.2568109055164410e-05 -2.7401875902102583e-06 -7.7135027294850786e-05  1.5112840764083715e-05 -2.9250481780688579e-05 1.6280558315802257e-04  3.3451434755182737e-05 -1.3292200952739303e-05 -1.8337021330150984e-04  -1.1591276805702743e-05 -3.4535963107010783e-05 -2.1019139523077579e-04  5.0101527866341418e-05 1.9264965748135268e-05 4.5548041916906556e-05  3.2259872004633829e-05 -1.6297377136361054e-06 2.5460481265606654e-04  2.3924203335707436e-05 -1.8397018443079905e-05 -2.4633650564981189e-04  1.9303466835608647e-05 1.7530536163461285e-05 1.7324568493638147e-04  2.6305012374159758e-05 3.1879290193779215e-05 1.5717457538573005e-04  2.9762949811913369e-05 -4.1762578098085005e-05 -1.4062503030206193e-04  1.3666895065348179e-05 4.6846084116231692e-05 -2.5172418065332965e-05  2.6945506700462950e-05 -4.3819578436832128e-06 -2.7949211252666718e-04  3.8391259064947099e-05 3.8666559513543179e-06 -2.2070387995280969e-04  1.4887607283455793e-05 3.5334978208013416e-05 1.9681526130476153e-04  1.7525838754379166e-05 4.4746325143570611e-05 1.2381827409225363e-04  1.2946565777782671e-05 2.2548602646508554e-05 2.7871421672594031e-04  -2.5812924572703608e-05 -4.2380438749214488e-05 -1.1942415870593803e-05  3.3992583794208589e-05 3.5800280305263128e-05 -6.7881507012628478e-05  3.6055592772128454e-05 1.9440423167200249e-05 -9.0135968318004423e-05  -1.0978469895194119e-05 -4.6288787882046735e-05 -1.5282818468883194e-04  1.5213574338245612e-06 -4.3568545348219728e-05 -1.9802951372076673e-04  3.9218179087575016e-07 -2.4153406091906701e-05 -2.1521356080639391e-04  1.3155900186202811e-05 -1.3570079794264040e-05 -2.7557938123760575e-04  2.2695771333967525e-05 2.6441430110993675e-05 -2.1536540483823297e-04  -1.2828897936131179e-05 -3.4689902169830899e-05 2.3154561504916984e-04  2.9293235576735615e-05 3.9732140390255117e-05 8.5315196352594237e-05  5.0758888033173537e-06 -2.4872794151870125e-05 2.3112032938204225e-04  9.5478167657712074e-06 -1.6876737518985169e-05 3.1620301858037978e-04  6.1392981645476410e-06 -5.3538320902568110e-05 -1.0385154676018429e-04  9.3658540781845109e-06 2.7591073945240452e-06 -3.1289029527984693e-04  4.4421858253716062e-06 4.5769481694038743e-05 1.8411945207864099e-04  2.2173265292269363e-05 9.3137535117431496e-06 -2.3606525049330674e-04  3.6871331564758078e-05 1.7740451657863080e-05 -2.0382283889242990e-04  3.8837728840508916e-05 9.2288993750015533e-06 -1.1498233222845554e-04  3.4574164222893223e-05 1.1308182716614956e-05 -4.4424593594861490e-05  4.9891532769826479e-05 3.6973142950024568e-06 3.5122009531032065e-05  1.9439946222717819e-05 -2.1254138256455872e-05 2.5241827721222439e-04  3.0679395390546444e-05 -3.0991711708534651e-05 2.0121475857096577e-04  2.1016449799602327e-06 5.2506607212266994e-05 1.2376138656952410e-04  3.5348231615138729e-06 -3.0433875474843413e-05 1.7056244125520858e-04  -2.1368536880554143e-05 -4.9732247247854099e-05 -7.5167066795787116e-05  -4.3001132556287016e-05 1.2275626671727443e-05 -1.0953866843701263e-04  -4.3831006068964745e-09 1.4097376483740312e-05 2.7267665980700343e-04  -6.8824185183569295e-06 5.3762999268703039e-05 5.5059938181016438e-05  1.7407627953373380e-05 -3.1653274608338046e-05 -2.2169459200508082e-04  -5.2780545217286011e-05 -1.3325426410437774e-05 5.7273938511550733e-05  -3.6674005714229737e-05 -4.1338143096621910e-05 -8.2401740854633635e-05  -3.8040246365212202e-05 -3.7423903548790404e-05 -2.6462822883528107e-05  4.1272045233881013e-05 3.1311732176515989e-05 7.3437434443695261e-05  2.1682722015069006e-05 -5.7000159139615809e-05 -2.0211170594399755e-05  2.8462414819214321e-05 -3.7515888816375584e-05 -5.0158832332120527e-05  4.5522601282057246e-06 3.3137322734674039e-05 2.4418148076859036e-04  1.0370747006162272e-05 7.8584434917385961e-06 3.1912817096549909e-04  1.9254417339193249e-05 1.1020551177082543e-05 2.1626929888114114e-04  -1.2869218594663536e-05 -5.5958842381541985e-05 1.9066714087917730e-05  -5.4125943754063252e-06 5.1883890932396771e-05 -4.0228568777387326e-05  -3.0536592790838545e-05 3.3339987541812743e-05 -1.6881047577368302e-04  -5.2570210937896869e-05 -1.5106471341233854e-05 -3.9176283164724652e-05  -2.0442879769715535e-05 1.2107070181079558e-05 -2.4723275013242716e-04  4.5956802374427024e-05 2.8939485508753496e-05 -5.5083614294799884e-06  5.7692964710124340e-06 2.7349548659734089e-05 -1.9148155916016283e-04  -2.4925541705984973e-05 -2.6531630447374933e-05 2.2710753339333606e-04  4.6861044764305365e-05 -2.9736535338303230e-06 -1.6557097664593974e-04  -1.2354926814445825e-05 3.9831702173628153e-05 1.8834518318777398e-04  -1.1003213143697864e-05 -2.3194338691940564e-05 -2.5687321424571510e-04  -7.0818185385051118e-06 -4.8725435795877702e-05 -6.5617215475541197e-05  3.3436095881400987e-05 -3.6299058444992809e-05 1.7642977773985039e-04  -4.8790533035671461e-05 3.0955120414385939e-05 6.4644268033262726e-05  -3.0467633028999592e-06 -1.4904411874946306e-05 -2.8723467046611772e-04  -3.8935846831621650e-05 2.2851371124503072e-05 -1.5278997668582425e-04  4.8364147640192382e-05 -1.2862571454739087e-05 1.2048901952547249e-05  2.5445299442737300e-05 4.6683865397903037e-05 -4.5930517824829730e-06  1.2002916370851567e-05 3.4214030900296639e-05 4.9067861861308297e-05  -4.3436750006536310e-05 -2.4257839814004781e-05 -1.5925733628330947e-05  1.0099872396776739e-05 -1.8034500914673307e-05 -2.5353932843526119e-04  -1.0563398584249370e-05 -2.6667054534632216e-05 2.6992365808798497e-04  2.4375778893406298e-05 1.7389027240982166e-06 3.0226297544729458e-04  2.1047932010049683e-05 -4.7735199094626822e-05 -8.3251977377973713e-05  -5.0723660046757290e-05 2.7970055647953752e-05 -8.7581439361114657e-05  4.7416195936958866e-06 4.9071148286220832e-05 9.7804554024167093e-06  3.8424544156091230e-05 -1.5685759417721910e-05 2.6446301044602354e-04  2.2562885437852624e-05 -9.7598636819812167e-06 2.8371606325674087e-04  1.7281393731702948e-05 -4.7120241633627200e-05 -1.5832738795660140e-04  3.8716898443363299e-05 4.1382914599639958e-05 7.7812253277125574e-06  1.3869531692768352e-06 6.2969963900311503e-06 -1.0270046247400003e-05  2.2079693323755019e-05 2.4942881051850643e-05 -2.0300728595549638e-05  -3.6533457397885725e-05 -8.6887194170238702e-06 -9.1300715806355677e-06  1.6363996287071257e-05 -2.9148164065699533e-05 -1.0984006971043789e-04  -2.5210522064815712e-05 1.9975564269607301e-05 -8.4385558273220593e-05  1.3091998302470033e-05 -4.9696947892083367e-06 1.9113751127669033e-04  3.2243979563030919e-05 -5.9118591216923668e-06 -1.0694605405051612e-05  -7.0507521885766661e-06 -3.5082485650178689e-05 1.0780065160588643e-04  -2.3106655150510420e-05 1.7283674198962368e-05 1.0804343784853195e-04  1.7333948982471521e-05 5.2667458927745286e-06 -1.8046238483507916e-04  -1.9128906768644668e-05 -2.6953915313672930e-05 -1.8211176263185032e-04  7.1551825937917763e-06 2.3651234191012636e-05 1.3171428210440690e-04  -5.1793303561550275e-06 3.2384084968572739e-05 8.0312370376289015e-06  -1.4487160250610345e-05 -1.2492806277427539e-05 2.4088625095707448e-04  6.0555968782047973e-06 2.4821509553987992e-05 -1.5204824413869207e-04  -9.8547516857545421e-06 8.1348532715648111e-06 -2.3218139393942213e-04  2.0588054445005026e-05 -2.6282698084582863e-05 7.1394238656470171e-05  3.2786252877273504e-05 1.6182473017606240e-05 8.3734499831264982e-05  -3.1370338023377734e-05 -6.9580273094182623e-07 -1.5289051505020860e-04  3.9755036082248371e-06 -1.9885682111770618e-05 -2.4116622094833237e-04  -8.2427070815003149e-06 -4.4910346092065768e-05 -8.9413348075659732e-05  -2.9394513645415257e-05 -2.7625343402344308e-05 1.4476317450101358e-04  -2.5881806657347854e-05 -3.5420804834477678e-05 -9.2627950931349041e-07  3.3851821212398618e-05 -1.4819031836093386e-05 -1.6644958161595596e-04  -4.5602759593086091e-05 1.4838914209479699e-05 1.7089759237414592e-05  6.4759460797311598e-06 -2.9144250002152729e-05 2.1254673281996062e-04  3.9745010235810768e-05 1.5014126142392159e-05 -1.0044304225024712e-04  -3.6405696997356933e-05 -3.9607225377334864e-06 1.3498192292048285e-04  -3.1104400806167829e-05 3.7606151883086104e-05 2.9410774263522357e-05  3.6413876530566701e-05 -1.2002991170464366e-05 1.4351781207820076e-04  -8.6365935737586958e-06 1.2244010339406635e-05 2.2083790617562655e-04  1.3748446464534764e-05 4.2394953171599661e-05 8.9182682594557742e-05  1.2853799927506052e-05 4.5822755508814055e-05 -8.6716449810447368e-05  -1.4787371816523472e-05 3.9427515409211438e-05 -1.2302794129057836e-04  3.2741164228823768e-05 -3.4476539487522282e-05 -2.7765656470912223e-05  -1.2808972644033372e-05 3.8144178026779888e-05 1.5796984501539432e-04  1.0996043520158646e-05 -4.5652681914281575e-05 2.3226008075207167e-05  2.1599157630211351e-05 1.6716517943241133e-05 2.2928784900638335e-04  -3.8459387223730625e-05 -2.3713095214778947e-05 -1.0951913510933649e-04  -6.0819063622927000e-06 -1.7994634037710535e-05 -8.8821011914548174e-05  -1.3503372353646156e-05 -8.6666768732793852e-06 1.1565540564177609e-04  </DataArray> 
</PointData> 
</Piece>
</UnstructuredGrid>
</VTKFile>