<?xml version="1.0"?>
<VTKFile type="UnstructuredGrid"  version="0.1"  >
<UnstructuredGrid>
<Piece  NumberOfPoints="201" NumberOfCells="657">
<Points>
<DataArray  type="Float64"  NumberOfComponents="3"  format="ascii">-1.158645118470946 0.2412821116016423 235.1661606665687  -0.6359693011400119 -0.2053743184574011 -235.5686226590116  781.5700743818023 0.2403818413580123 -230.258491671024  1440.731764589481 0.06307843466604503 -208.8013054524041  1912.646637498822 -0.3443623817937957 -164.297666564268  2191.350202838828 -0.2466166277038104 -90.34595146477218  2283.629455290159 -0.06288112314002124 0.2569186435625986  2191.548366399881 -0.1233977103097604 90.66327228132032  1912.621246308694 -0.2514481149841661 164.4303003153892  1440.673702300918 0.2385313392263232 209.1173375094288  781.690222025323 0.1800305541052559 230.3382628960052  972.2173142448129 -434.5306878713754 -215.4150065253612  971.3639731752984 337.2101609374266 219.7518060397121  2177.694609798606 -416.4179192909366 -43.41139590741108  1638.720115689437 -436.3795431663503 179.0046006208558  2010.342957304786 415.5311007568973 120.2201237339387  2003.618831730601 415.7108818928624 -121.7432432859665  1082.275989496066 390.7187666066129 -214.4003070294553  381.5002154475382 -382.173269504733 226.3524283059799  1631.130994678767 -401.9949382367326 -181.9293230291409  1140.7541810116 -770.8219248315938 -179.7819798894099  1646.137257009854 -776.7040017818997 -131.6357640412382  1126.081082867202 -1085.085659168865 -120.9939633106899  1557.781840834539 -1040.644897041338 -62.29610626459748  976.6934693706648 -1288.581176946118 -50.6001817319797  1384.158884866863 -1175.962496097855 13.43697716288759  727.3249518730856 -1367.189511917141 22.8882412238269  1067.682648878858 -1198.650046266796 88.07244167773827  385.5378134898678 -1319.485150942818 90.18961357333177  702.7279448160489 -1078.845238578984 148.6058185210791  -27.19082841143563 -1149.338438072764 146.4806604379837  1632.447075891696 -965.7772578303661 78.03862372069702  1632.271627474698 402.2986588711896 182.3581014488877  1615.085624789316 780.4894969265284 136.0666454392536  1914.275613924316 763.5619127667237 64.48377046013341  271.4150196379054 -851.1802753180514 192.4144715232661  987.1506533972397 -758.120160756928 187.8068120866753  1144.675601424803 726.8753237703353 185.0150905244518  1069.76697087178 1065.000171951372 131.0301202716567  2182.25810936758 -406.315900096801 43.66706957269093  1918.390075275815 -825.251144574439 5.14680389420174  2015.923483549451 -416.2566967901994 -118.4917035067626  380.5909967727691 382.6078576694783 -226.2160328593485  1618.07816497921 391.242054894473 -184.0646079080005  1603.705974664201 776.0105095508983 -138.3045990532131  480.5557255276448 -1281.129409326316 -101.521277238554  -336.428336389436 -1334.555729909416 85.25058554878275  498.292434604728 -774.447196813819 -197.8119191554608  1902.014350971353 771.8103257084416 -66.18292120456384  1424.965965558319 1086.615549089294 -75.85473447645546  1037.798622674156 1036.379725706686 -140.1150998394646  800.9835803403605 1285.77538314195 -77.96197501856089  361.7674115465128 1192.990633586395 -132.3633083967626  102.2823317124616 1377.742670663585 -69.41433458744598  -369.9152477452054 1228.292350383679 -122.4006471659199  -596.5004054651578 1361.979611907876 -53.1328123429078  -1060.933036530379 1176.870371167687 -98.08353312161499  -115.5162825189119 1434.445987406207 4.713685927309921  -753.5241491412678 -1117.15989792643 138.1494157041228  -1012.980105234368 -1250.296291850167 70.57019420509329  -1227.675401065321 1233.508345836213 -27.0754840423019  -1629.899248539531 982.3344162027606 -71.14911734249709  -1723.565950522659 986.3340274886973 6.243940304437149  -2030.781008996348 662.6995178619928 -46.69530298499554  -2057.477594855784 630.1570951392033 43.06591869870169  -1836.986312625779 618.7174046643968 -128.2219616080871  -1676.14522497134 908.6890712764263 89.35594721560241  -2160.523713655093 276.5958344589146 -85.74049569147707  -1933.570716995639 512.6957389107687 124.4579832132327  -1889.774468543886 173.71209385599 -164.5110353300605  -2083.373639029791 -199.4996643405963 -121.4818589089527  -1466.067767480922 750.4733526837847 158.9782015009663  -347.053453938122 -588.3636457108462 214.6809673719817  -1402.61256984757 -979.4533773365382 118.5478163907255  -1718.431299527999 -263.4683935177798 -182.5405626618043  -1810.672240285936 -623.8965862113224 -132.5598764598491  -2205.613889632478 176.0344914462476 74.25244606317868  -801.233729840687 961.9553408677896 -167.0695958270487  -1642.675468360117 322.8725062351014 186.868277418681  519.4787385113738 963.8975962468029 174.185870528884  -2116.070860312423 -522.6029292343079 -49.79721270472221  -1425.538679200797 103.4872648440803 -209.5450463012664  -1110.890755867 559.2222993493455 202.1346056796128  -1343.971359719577 -651.9991581352883 -182.1531417513982  -1366.53536627511 -976.3173634990452 -124.5740910082589  -1149.484467039587 1089.86759010563 117.3464965226768  -575.1051973354273 -1395.109307035167 16.39509204319985  -1186.68718519488 94.9792540076314 219.5347035333243  -1695.841603754524 -140.5104074282743 188.8699389008927  -810.5422183520723 -956.2624682857534 -167.8101055210738  -787.7796256721825 -1223.783016927763 -105.8895568140016  -723.6184720664895 -600.262775258567 -210.0930418847145  1156.623486975982 1265.351619866126 -7.251289881176562  -1559.281115451395 -1061.33844087272 48.1178144641524  -1889.696256470832 -729.6396226235687 87.5873081042391  418.002220881533 1245.555286144577 116.1830403931764  -155.5390916706102 1117.235633776039 152.152667490377  -55.17706093446713 838.1023052116705 194.7201668308477  -682.2722623539497 355.6655950398414 224.9708961363822  -1088.343790601413 -786.9583374895361 180.5040568690733  569.677477036253 943.5193218430151 -176.1115603246442  -1283.338780591172 -1179.690693457454 -58.27244706926762  -183.2470667550375 717.3739920263246 -206.021432807087  -416.6014594469216 307.6389855475506 -229.0460799294852  -258.3060963394461 1340.132133191625 85.11103174142512  -536.4713910880884 -218.0465286054633 230.2510772336256  -170.738928957279 -1171.102581709304 -140.5849163117243  -1128.201921710677 -357.1517796703521 214.5348242171937  -1664.540007905185 -593.5245140876374 159.1125552606976  -2036.897201232105 -292.6314785617106 127.0152348027963  -2189.554431026465 -384.7240734609987 41.23524996759176  -2273.282727487433 -50.20549827766459 -26.1773681555267  -945.0104325453358 619.4309136734299 -203.6480924732879  -1392.372832479697 699.8842347264739 -172.817884618377  -197.8225288995887 -1350.13161288977 -82.17857632190568  -82.03227630460516 1053.481908777321 -164.7891282677228  915.4411997996998 1279.530118331989 67.56198692531679  2005.172788196536 -397.8257140915475 123.8335292240778  124.8138134614472 -400.4674903084685 -226.2917204476117  361.0764763973048 -1403.145548155103 -38.93770384486989  -734.564460124461 918.4788424615896 175.7007159733061  2186.065404341343 390.6607926814032 -44.38832804786161  1465.045050723777 1079.069582675596 69.69100976967606  1716.763372486859 991.9031429005915 -3.06851114064715  -1751.066533169622 -897.3242508505271 -70.20784343838385  -756.557766620086 1364.491714968845 19.99548096734276  -1270.552656214083 1197.086977758833 48.60102495215691  -133.0170128093563 -868.9984486803446 -190.7634953155528  -591.2143095223447 -158.6524937977381 -231.4633364742806  -1214.607292648626 -260.3261992766549 -215.5180095208893  526.1023733937207 1401.689879236178 -13.03941840945177  60.33475749503392 -1426.882639990444 28.03290430208008  1298.57472068571 -929.1710325052804 142.8656417827529  2188.785070005834 395.6197541268244 39.64610896359537  1082.033397448936 -387.8799818541024 214.8559953316986  -1928.909854426289 -814.0795850651656 6.96777742802494  -434.5371143626676 -942.2092857875436 178.4397207127851  1177.150079155504 705.3126158288565 -185.3637301760937  -2005.376285102997 121.8186958402751 144.6443386478895  534.97132446201 -1067.417713260928 -155.8372314842345  605.642562584917 685.6989986758148 204.7956814826647  325.1348046930287 1390.807992610458 53.12520444075194  -1451.61134836053 929.8658814483766 -125.6275823657043  1921.332844560103 -734.75124920493 -73.66439021010758  -38.90440980069585 367.9869825246111 227.730452236513  1764.592583669772 -706.8678990635226 125.4092949774657  -2215.045280377018 370.9410740108027 -6.951805372135829  -1177.12130356841 -1259.739977732016 2.310160271194079  -721.4486622719794 -1354.219564312576 -42.70282939636122  2046.407330936996 680.1388942643655 -1.940303497891306  -552.3279373303681 703.4041494775471 204.3303308505884  688.3346088129146 639.8877353887674 -207.3305465056416  -849.8863577740532 105.1988113255244 -228.8742993327949  -843.6014758496632 1270.780504015185 81.72488659963116  1955.300585434241 -684.5786507478356 78.22630748302309  -157.5715315426645 -1426.042824978256 -25.39268498838066  -1547.508554304466 385.2086740155475 -190.6789819929315  -1086.861204804972 319.7232276384756 -217.8248327908175  -658.214737297948 1159.318796510379 131.9662013644994  -1602.862661020899 -1062.793378615953 -15.44234420284021  -0.2067223775885711 -0.05677472673292606 -0.0573938349379074  -794.0232661932371 -561.1226594490784 6.474717937981269  1198.15189131745 221.5653719097353 -0.9453915637560893  -481.8726517240493 585.9708540117924 53.0098896152228  898.6407936587543 -419.0385476194623 49.35254121234723  -598.0602977515425 60.91508482385236 -106.6544739537164  -1232.788655047554 113.2229614100608 -0.09598853724206599  237.717475780366 660.2343745696768 -45.69329983227951  843.0882889944262 -328.7625688388358 -72.7890968186496  -662.7775430139995 -62.13712820762674 103.7383809426713  627.9705275744191 494.1105129310307 84.12821312764801  -232.2632244519223 -560.6140487246764 -90.18939374529685  203.7955686310926 -810.8733789987767 0.3853484187214781  506.330190531392 215.4642657341039 -118.126384596
[...]
<PointData  Vectors="Tidal Force"> 
<DataArray  type="Float64"  Name="Tidal Force"  NumberOfComponents="3" format="ascii">0.0000000000000000e+00 3.1124341084607948e-16 0.0000000000000000e+00  0.0000000000000000e+00 -2.6335980917745186e-16 0.0000000000000000e+00  0.0000000000000000e+00 2.9927251042892258e-16 0.0000000000000000e+00  0.0000000000000000e+00 8.3796302920098311e-17 0.0000000000000000e+00  0.0000000000000000e+00 -4.4292331543480544e-16 0.0000000000000000e+00  0.0000000000000000e+00 -3.1124341084607948e-16 0.0000000000000000e+00  0.0000000000000000e+00 -7.7810852711519871e-17 0.0000000000000000e+00  0.0000000000000000e+00 -1.6160715563161819e-16 0.0000000000000000e+00  0.0000000000000000e+00 -3.2321431126323639e-16 0.0000000000000000e+00  0.0000000000000000e+00 2.9927251042892258e-16 0.0000000000000000e+00  0.0000000000000000e+00 2.3343255813455958e-16 0.0000000000000000e+00  0.0000000000000000e+00 -5.6008850326772857e-13 0.0000000000000000e+00  0.0000000000000000e+00 4.3464543779634135e-13 0.0000000000000000e+00  0.0000000000000000e+00 -5.3633225138988081e-13 0.0000000000000000e+00  0.0000000000000000e+00 -5.6226720714365111e-13 0.0000000000000000e+00  0.0000000000000000e+00 5.3526085580254514e-13 0.0000000000000000e+00  0.0000000000000000e+00 5.3548830291047114e-13 0.0000000000000000e+00  0.0000000000000000e+00 5.0359183874895662e-13 0.0000000000000000e+00  0.0000000000000000e+00 -4.9269831936934386e-13 0.0000000000000000e+00  0.0000000000000000e+00 -5.1796290469975348e-13 0.0000000000000000e+00  0.0000000000000000e+00 -9.9345904016964277e-13 0.0000000000000000e+00  0.0000000000000000e+00 -1.0007493185236913e-12 0.0000000000000000e+00  0.0000000000000000e+00 -1.3984645285331037e-12 0.0000000000000000e+00  0.0000000000000000e+00 -1.3408725266261617e-12 0.0000000000000000e+00  0.0000000000000000e+00 -1.6608247675257229e-12 0.0000000000000000e+00  0.0000000000000000e+00 -1.5153723420070579e-12 0.0000000000000000e+00  0.0000000000000000e+00 -1.7622961049117533e-12 0.0000000000000000e+00  0.0000000000000000e+00 -1.5448566697345156e-12 0.0000000000000000e+00  0.0000000000000000e+00 -1.7009631966244499e-12 0.0000000000000000e+00  0.0000000000000000e+00 -1.3906654869113259e-12 0.0000000000000000e+00  0.0000000000000000e+00 -1.4816981991335958e-12 0.0000000000000000e+00  0.0000000000000000e+00 -1.2443511565626257e-12 0.0000000000000000e+00  0.0000000000000000e+00 5.1835195896331107e-13 0.0000000000000000e+00  0.0000000000000000e+00 1.0056334458938914e-12 0.0000000000000000e+00  0.0000000000000000e+00 9.8361896002673987e-13 0.0000000000000000e+00  0.0000000000000000e+00 -1.0973245576391047e-12 0.0000000000000000e+00  0.0000000000000000e+00 -9.7716664470189207e-13 0.0000000000000000e+00  0.0000000000000000e+00 9.3681273939565632e-13 0.0000000000000000e+00  0.0000000000000000e+00 1.3726253399826704e-12 0.0000000000000000e+00  0.0000000000000000e+00 -5.2331988263643121e-13 0.0000000000000000e+00  0.0000000000000000e+00 -1.0630997533464533e-12 0.0000000000000000e+00  0.0000000000000000e+00 -5.3619458603508341e-13 0.0000000000000000e+00  0.0000000000000000e+00 4.9324898078853304e-13 0.0000000000000000e+00  0.0000000000000000e+00 5.0411257291710291e-13 0.0000000000000000e+00  0.0000000000000000e+00 9.9986945734303027e-13 0.0000000000000000e+00  0.0000000000000000e+00 -1.6514994361007578e-12 0.0000000000000000e+00  0.0000000000000000e+00 -1.7204039389019129e-12 0.0000000000000000e+00  0.0000000000000000e+00 -9.9837908024109401e-13 0.0000000000000000e+00  0.0000000000000000e+00 9.9426109049759234e-13 0.0000000000000000e+00  0.0000000000000000e+00 1.4002122799940085e-12 0.0000000000000000e+00  0.0000000000000000e+00 1.3357609521480361e-12 0.0000000000000000e+00  0.0000000000000000e+00 1.6573232791537045e-12 0.0000000000000000e+00  0.0000000000000000e+00 1.5379255183929814e-12 0.0000000000000000e+00  0.0000000000000000e+00 1.7761045385429440e-12 0.0000000000000000e+00  0.0000000000000000e+00 1.5834269108785948e-12 0.0000000000000000e+00  0.0000000000000000e+00 1.7556342988296058e-12 0.0000000000000000e+00  0.0000000000000000e+00 1.5167849082562825e-12 0.0000000000000000e+00  0.0000000000000000e+00 1.8491868855896869e-12 0.0000000000000000e+00  0.0000000000000000e+00 -1.4400155238810555e-12 0.0000000000000000e+00  0.0000000000000000e+00 -1.6114388178547422e-12 0.0000000000000000e+00  0.0000000000000000e+00 1.5896457936453079e-12 0.0000000000000000e+00  0.0000000000000000e+00 1.2656833011059992e-12 0.0000000000000000e+00  0.0000000000000000e+00 1.2707529774326652e-12 0.0000000000000000e+00  0.0000000000000000e+00 8.5362096694662439e-13 0.0000000000000000e+00  0.0000000000000000e+00 8.1168690278532369e-13 0.0000000000000000e+00  0.0000000000000000e+00 7.9708240427639234e-13 0.0000000000000000e+00  0.0000000000000000e+00 1.1707600462481535e-12 0.0000000000000000e+00  0.0000000000000000e+00 3.5624801096438083e-13 0.0000000000000000e+00  0.0000000000000000e+00 6.6044654691496337e-13 0.0000000000000000e+00  0.0000000000000000e+00 2.2378401239833113e-13 0.0000000000000000e+00  0.0000000000000000e+00 -2.5696734835469010e-13 0.0000000000000000e+00  0.0000000000000000e+00 9.6706320474981179e-13 0.0000000000000000e+00  0.0000000000000000e+00 -7.5851216313231284e-13 0.0000000000000000e+00  0.0000000000000000e+00 -1.2621399145825208e-12 0.0000000000000000e+00  0.0000000000000000e+00 -3.3944685222890110e-13 0.0000000000000000e+00  0.0000000000000000e+00 -8.0376216670916584e-13 0.0000000000000000e+00  0.0000000000000000e+00 2.2671688300053456e-13 0.0000000000000000e+00  0.0000000000000000e+00 1.2399578361095288e-12 0.0000000000000000e+00  0.0000000000000000e+00 4.1600674584682813e-13 0.0000000000000000e+00  0.0000000000000000e+00 1.2425794633008868e-12 0.0000000000000000e+00  0.0000000000000000e+00 -6.7311175955631548e-13 0.0000000000000000e+00  0.0000000000000000e+00 1.3334984519691933e-13 0.0000000000000000e+00  0.0000000000000000e+00 7.2076791411701721e-13 0.0000000000000000e+00  0.0000000000000000e+00 -8.4022552937982591e-13 0.0000000000000000e+00  0.0000000000000000e+00 -1.2581296629427733e-12 0.0000000000000000e+00  0.0000000000000000e+00 1.4046056004471052e-12 0.0000000000000000e+00  0.0000000000000000e+00 -1.7983464715180215e-12 0.0000000000000000e+00  0.0000000000000000e+00 1.2240245676542934e-13 0.0000000000000000e+00  0.0000000000000000e+00 -1.8104191245887240e-13 0.0000000000000000e+00  0.0000000000000000e+00 -1.2326077032533949e-12 0.0000000000000000e+00  0.0000000000000000e+00 -1.5774175188691822e-12 0.0000000000000000e+00  0.0000000000000000e+00 -7.7378703206460496e-13 0.0000000000000000e+00  0.0000000000000000e+00 1.6307538656778247e-12 0.0000000000000000e+00  0.0000000000000000e+00 -1.3675257364049616e-12 0.0000000000000000e+00  0.0000000000000000e+00 -9.3994312985474293e-13 0.0000000000000000e+00  0.0000000000000000e+00 1.6056508875030468e-12 0.0000000000000000e+00  0.0000000000000000e+00 1.4403088109412755e-12 0.0000000000000000e+00  0.0000000000000000e+00 1.0804815007521650e-12 0.0000000000000000e+00  0.0000000000000000e+00 4.5849147142731802e-13 0.0000000000000000e+00  0.0000000000000000e+00 -1.0142764359950785e-12 0.0000000000000000e+00  0.0000000000000000e+00 1.2162853805346013e-12 0.0000000000000000e+00  0.0000000000000000e+00 -1.5202504839270495e-12 0.0000000000000000e+00  0.0000000000000000e+00 9.2484782442870779e-13 0.0000000000000000e+00  0.0000000000000000e+00 3.9660191627061678e-13 0.0000000000000000e+00  0.0000000000000000e+00 1.7276104209530413e-12 0.0000000000000000e+00  0.0000000000000000e+00 -2.8109469814546980e-13 0.0000000000000000e+00  0.0000000000000000e+00 -1.5097400333607858e-12 0.0000000000000000e+00  0.0000000000000000e+00 -4.6032301919114296e-13 0.0000000000000000e+00  0.0000000000000000e+00 -7.6472506044881724e-13 0.0000000000000000e+00  0.0000000000000000e+00 -3.7693372688522799e-13 0.0000000000000000e+00  0.0000000000000000e+00 -4.9550549551716697e-13 0.0000000000000000e+00  0.0000000000000000e+00 -6.4660818603273025e-14 0.0000000000000000e+00  0.0000000000000000e+00 7.9842314512311390e-13 0.0000000000000000e+00  0.0000000000000000e+00 9.0190559377922680e-13 0.0000000000000000e+00  0.0000000000000000e+00 -1.7405090661525280e-12 0.0000000000000000e+00  0.0000000000000000e+00 1.3581345650277022e-12 0.0000000000000000e+00  0.0000000000000000e+00 1.6491950377704550e-12 0.0000000000000000e+00  0.0000000000000000e+00 -5.1245030505765255e-13 0.0000000000000000e+00  0.0000000000000000e+00 -5.1630493499197723e-13 0.0000000000000000e+00  0.0000000000000000e+00 -1.8088030530324080e-12 0.0000000000000000e+00  0.0000000000000000e+00 1.1839459930576520e-12 0.0000000000000000e+00  0.0000000000000000e+00 5.0316088633393883e-13 0.0000000000000000e+00  0.0000000000000000e+00 1.3904440252536086e-12 0.0000000000000000e+00  0.0000000000000000e+00 1.2779295322327509e-12 0.0000000000000000e+00  0.0000000000000000e+00 -1.1560717514363021e-12 0.0000000000000000e+00  0.0000000000000000e+00 1.7587826456393179e-12 0.0000000000000000e+00  0.0000000000000000e+00 1.5426719804083844e-12 0.0000000000000000e+00  0.0000000000000000e+00 -1.1203146718902544e-12 0.0000000000000000e+00  0.0000000000000000e+00 -2.0452881907733425e-13 0.0000000000000000e+00  0.0000000000000000e+00 -3.3551441144186507e-13 0.0000000000000000e+00  0.0000000000000000e+00 1.8068637671648285e-12 0.0000000000000000e+00  0.0000000000000000e+00 -1.8394485581003299e-12 0.0000000000000000e+00  0.0000000000000000e+00 -1.1974312123775793e-12 0.0000000000000000e+00  0.0000000000000000e+00 5.0954736170649214e-13 0.0000000000000000e+00  0.0000000000000000e+00 -4.9992874322130654e-13 0.0000000000000000e+00  0.0000000000000000e+00 -1.0486927746944047e-12 0.0000000000000000e+00  0.0000000000000000e+00 -1.2146393817272424e-12 0.0000000000000000e+00  0.0000000000000000e+00 9.0901630862701798e-13 0.0000000000000000e+00  0.0000000000000000e+00 1.5692054811830125e-13 0.0000000000000000e+00  0.0000000000000000e+00 -1.3760131048007261e-12 0.0000000000000000e+00  0.0000000000000000e+00 8.8394325770328276e-13 0.0000000000000000e+00  0.0000000000000000e+00 1.7929056972784235e-12 0.0000000000000000e+00  0.0000000000000000e+00 1.1982153063549029e-12 0.0000000000000000e+00  0.0000000000000000e+00 -9.4652113963397062e-13 0.0000000000000000e+00  0.0000000000000000e+00 4.7441875443234522e-13 0.0000000000000000e+00  0.0000000000000000e+00 -9.1069822013562843e-13 0.0000000000000000e+00  0.0000000000000000e+00 4.7774666474831482e-13 0.0000000000000000e+00  0.0000000000000000e+00 -1.6234815436744022e-12 0.0000000000000000e+00  0.0000000000000000e+00 -1.7455607861285682e-12 0.0000000000000000e+00  0.0000000000000000e+00 8.7607239067900210e-13 0.0000000000000000e+00  0.0000000000000000e+00 9.0677775024900965e-13 0.0000000000000000e+00  0.0000000000000000e+00 8.2487284959482208e-13 0.0000000000000000e+00  0.0000000000000000e+00 1.3560037447534481e-13 0.0000000000000000e+00  0.0000000000000000e+00 1.6379543622787445e-12 0.0000000000000000e+00  0.0000000000000000e+00 -8.8186630648090602e-13 0.0000000000000000e+00  0.0000000000000000e+00 -1.8383532207121598e-12 0.0000000000000000e+00  0.0000000000000000e+00 4.9636141489699375e-13 0.0000000000000000e+00  0.0000000000000000e+00 4.1208029051000065e-13 0.0000000000000000e+00  0.0000000000000000e+00 1.4943993244761990e-12 0.0000000000000000e+00  0.0000000000000000e+00 -1.3693692550692037e-12 0.0000000000000000e+00  0.0000000000000000e+00 -7.1825402502941418e-17 0.0000000000000000e+00  0.0000000000000000e+00 -7.2330574500545433e-13 0.0000000000000000e+00  0.0000000000000000e+00 2.8555984400106932e-13 0.0000000000000000e+00  0.0000000000000000e+00 7.5539972902385203e-13 0.0000000000000000e+00  0.0000000000000000e+00 -5.4013301227232799e-13 0.0000000000000000e+00  0.0000000000000000e+00 7.8529106736549283e-14 0.0000000000000000e+00  0.0000000000000000e+00 1.4591929063493406e-13 0.0000000000000000e+00  0.0000000000000000e+00 8.5117291781131587e-13 0.0000000000000000e+00  0.0000000000000000e+00 -4.2377586021756289e-13 0.0000000000000000e+00  0.0000000000000000e+00 -8.0097294691196847e-14 0.0000000000000000e+00  0.0000000000000000e+00 6.3696562574671020e-13 0.0000000000000000e+00  0.0000000000000000e+00 -7.2274311268584804e-13 0.0000000000000000e+00  0.0000000000000000e+00 -1.0453768352788524e-12 0.0000000000000000e+00  0.0000000000000000e+00 2.7776080237929161e-13 0.0000000000000000e+00  0.0000000000000000e+00 -8.1248296766306477e-13 0.0000000000000000e+00  0.0000000000000000e+00 -9.9364458912610864e-14 0.0000000000000000e+00  0.0000000000000000e+00 8.0497721310150730e-13 0.0000000000000000e+00  0.0000000000000000e+00 -3.8885674370071622e-13 0.0000000000000000e+00  0.0000000000000000e+00 4.9403906021606534e-14 0.0000000000000000e+00  0.0000000000000000e+00 4.9207583254765168e-13 0.0000000000000000e+00  0.0000000000000000e+00 1.1205600753488061e-12 0.0000000000000000e+00  0.0000000000000000e+00 6.7390782443405635e-13 0.0000000000000000e+00  0.0000000000000000e+00 9.4747282621713449e-13 0.0000000000000000e+00  0.0000000000000000e+00 4.3023416099261904e-13 0.0000000000000000e+00  0.0000000000000000e+00 -3.6142542539480122e-13 0.0000000000000000e+00  0.0000000000000000e+00 7.3500730016322516e-13 0.0000000000000000e+00  0.0000000000000000e+00 -3.9995376838742068e-13 0.0000000000000000e+00  0.0000000000000000e+00 6.8347855931757336e-14 0.0000000000000000e+00  0.0000000000000000e+00 -9.3148568871002149e-13 0.0000000000000000e+00  0.0000000000000000e+00 3.4742545735693620e-13 0.0000000000000000e+00  0.0000000000000000e+00 -3.5792992247299138e-13 0.0000000000000000e+00  0.0000000000000000e+00 -1.1549584576975066e-12 0.0000000000000000e+00  0.0000000000000000e+00 -1.2164888858416929e-12 0.0000000000000000e+00  0.0000000000000000e+00 -1.0728320953856016e-12 0.0000000000000000e+00  0.0000000000000000e+00 9.3468790457161109e-13 0.0000000000000000e+00  0.0000000000000000e+00 -1.0426414845335321e-12 0.0000000000000000e+00  0.0000000000000000e+00 1.2307462282385268e-12 0.0000000000000000e+00  0.0000000000000000e+00 -4.6636832390180717e-13 0.0000000000000000e+00  0.0000000000000000e+00 6.1452018746454099e-13 0.0000000000000000e+00  0.0000000000000000e+00 5.4746518877783667e-13 0.0000000000000000e+00  0.0000000000000000e+00 2.9645934883089068e-13 0.0000000000000000e+00  </DataArray> 
</PointData> 
</Piece>
</UnstructuredGrid>
</VTKFile>