<?xml version="1.0"?>
<VTKFile type="UnstructuredGrid"  version="0.1"  >
<UnstructuredGrid>
<Piece  NumberOfPoints="201" NumberOfCells="657">
<Points>
<DataArray  type="Float64"  NumberOfComponents="3"  format="ascii">-101.2336869683039 -109.8133620042634 509.8641695895519  73.85417693374947 114.6494976258547 -509.3424801249298  4471.324477119359 -286.5290410836133 -940.4523579014808  7781.881679980186 -556.2747942821011 -1247.279958086741  9847.601368119989 -684.2340393631595 -1331.975049326715  10980.83378006844 -727.6684389723105 -1141.493772252532  11347.40215747722 -741.1117374106568 -804.6557852801863  10987.14426247822 -747.7046604510851 -470.8628775883605  9844.524953740631 -741.2453653495569 -231.940516816385  7734.139762042941 -683.7381514023284 -81.76624546344739  4350.322967770899 -474.0527897145941 138.229716598188  5689.175943573086 -3114.655760983912 -530.0513682069331  5095.023808601388 1614.621800007849 -337.0233003765934  11040.7576328093 -2945.779490391675 -641.9817146780356  8758.596093655135 -3215.940327453285 309.2941388549324  9989.484854314716 1555.995663594922 -689.8591262232774  9951.902192979103 1577.979358605238 -1546.627673598974  5669.878325042806 2016.998012583573 -1536.539847199837  2381.438885698709 -2801.843639580528 838.8887662245579  8777.587696359484 -2955.327010600997 -885.0813661458383  6518.40841816536 -5053.293041097188 -274.8105071479065  8814.017156024449 -4974.015767764471 -453.6827812400239  6362.963113518727 -6628.053917611872 69.70970144555825  8331.090196833731 -6286.344651408754 -3.928370784909624  5584.658978739835 -7569.119981686955 481.1494760501616  7494.553757835226 -6970.979753265882 462.6316955125205  4352.520470100464 -7921.188273504081 933.2736123833422  6007.4350585558 -7161.937099920065 944.1090724030604  2665.008857861117 -7685.384851487564 1350.256429633784  4243.820439608858 -6655.93846057052 1268.254323043616  533.8699238196009 -6794.953266359888 1640.647662906141  8664.653924549944 -5915.255953535414 464.4051029657674  8332.435416056391 1651.731090179543 -542.8335668110986  7878.543199612674 3751.029363811206 -885.5845495231664  9264.805148208468 3437.035619986021 -1068.513495460274  1994.897528821369 -5466.643807036914 1386.012731719901  5678.631543576268 -5074.228629149698 939.5924178379134  5607.833037825167 3826.336614740954 -733.5149572241842  4897.496397286963 5650.03355530449 -981.8556004699734  11056.30590279794 -2898.655728816977 -311.6275362122439  9942.262648751701 -5111.765678585086 -52.70864370993925  10399.2583058224 -2983.903388248884 -865.2685058619827  1895.024347100607 2430.380933390658 -1214.109738223656  8264.866908822563 1675.997030262079 -1656.77197754081  7812.502507334551 3764.440688822644 -1805.561221525512  3187.652914324105 -7536.614610630325 578.9102349432358  -987.0782901523557 -7458.172787214699 1625.314154911488  3311.995170391623 -5028.105020116463 104.9434896904419  9190.130390727067 3503.463884651219 -1553.378569553475  6657.695285801428 5439.086312412602 -1712.196623325943  4772.866892105352 5554.11915695818 -1869.381362365489  3372.9861426796 6897.826127285752 -1695.762005522806  1172.747563317321 6800.745936280347 -1735.316184576911  -241.8936981091122 7749.252028811937 -1479.692476901102  -2600.977530418404 7288.563405233891 -1425.115441495865  -3738.644360924157 7896.294644466652 -1113.668350898663  -5997.8108240611 7082.646635948524 -975.2068303923579  -1365.362708111517 8080.851084794026 -1114.995858739073  -3261.54747586077 -6187.806425745738 1844.279275520562  -4476.662426481935 -6584.00894410114 1707.142856176907  -6774.877607722324 7294.050724101521 -632.2547005732789  -8654.361720525221 6015.181862833206 -460.6251060206943  -9067.727304329399 5981.466922244062 -105.9711823783555  -10432.059869927 4265.630399351528 46.1060371900938  -10546.96609826068 4085.00134477024 433.1267736539683  -9615.228646052585 4134.432257639017 -286.0087711729806  -8898.45947996665 5631.579346299496 239.1076920500396  -10932.75724596905 2238.026781847782 243.7441906190197  -10050.81934144094 3518.333614230858 769.3101872927668  -9798.453200087995 1729.25862102428 52.8215745146088  -10422.49254512268 -356.9799681763664 523.9617034339518  -8033.813975588285 4903.69177860703 443.1831683477088  -1553.777840196574 -3693.257643344013 1425.704176298972  -6636.047343887287 -4981.241982279767 1830.537608282217  -8821.761441851875 -816.0471224139146 425.1385838376784  -8916.693495040627 -2794.293463698902 808.9651110803455  -11081.53596211806 1684.020473412737 939.6613772887955  -4753.091558347748 6102.299362456326 -1176.908318998471  -8806.236809771268 2511.61776959003 974.4989002046788  2088.279530574715 5572.585983655144 -730.3152569009062  -10321.85355252927 -2081.016417478313 976.8932869672975  -7692.781734384467 1301.986735886111 -43.06934326325393  -6399.179281738962 3891.065996712532 463.2446916496643  -6678.766534224133 -3276.323513231367 714.3288027846237  -6471.673543738879 -4973.523755097654 997.1087285125319  -6481.552752160419 6667.155442733164 -75.36216456805582  -2169.173964776424 -7550.92778531727 1436.383015545702  -6611.194446454393 1050.70599847903 1029.977775017717  -8817.19758907383 -184.4028241970807 1453.022283986401  -3655.39191391225 -5325.413836904023 824.9146304015932  -3340.719456607514 -6642.109742553857 1040.83798210635  -3498.839033350968 -3408.638249845786 523.6137005593707  5188.065219862171 6496.85688288617 -1477.773030348239  -7321.032849852716 -5225.786522079655 1611.733002636154  -9162.149549631189 -3308.231186915204 1619.70416908973  1400.282635576675 6996.28949371396 -910.540465761449  -1565.605833837578 6695.168772105081 -556.4505123203996  -954.3643727086049 5218.280800436321 -389.4729424961486  -4162.731639815584 2561.597878392336 446.0054931545666  -5267.808025792248 -4275.915724243879 1843.67489214567  2426.022629269709 5478.275760826316 -1784.207932684029  -5874.722426856037 -6028.672151742394 1245.798863047414  -1469.07893765107 4702.97527634676 -1312.860250817663  -2530.030295131712 2340.692844838947 -725.6779217236214  -2096.287165072684 7740.60801766371 -750.1229766992985  -2935.646332593864 -1291.046468236213 1092.23119699086  -139.1138344118018 -6817.884236830212 750.1948171188578  -5917.429626685371 -1794.034956516113 1520.003368500665  -8268.054029745295 -2777.336859871657 1760.316724722235  -10156.49951123009 -906.9898666664203 1477.913010018174  -10722.47160564242 -1332.332584009739 1229.510800197473  -11260.59383685165 475.9482802366355 734.147539147124  -5466.481979996765 4322.542599036132 -840.5230065536313  -7631.606929405409 4705.357578016509 -666.3471349220791  -244.9269382910294 -7602.557454516599 957.5306392008155  -1076.048877346101 6381.843209278723 -1575.531288114917  3953.550181802391 6770.130959405719 -1181.095065017686  10338.37303493276 -2909.456901137418 6.277683800556176  1098.932794502575 -2627.555636375197 -56.22200015583591  2569.687958569118 -8032.24424106443 877.4124999270863  -4531.044299433932 5847.518914347734 -91.18534725712335  10733.57270172611 1358.108622562259 -1248.03119645369  6864.615151891242 5360.412657524027 -1180.794265811114  8143.436014817979 4724.29732858857 -1405.496071867384  -8381.793013342705 -4255.01695493453 1125.338563513288  -4528.703834934344 7919.291112688091 -742.2997841872019  -6994.185235451644 7119.072497680122 -290.6616652914317  -54.4206628153994 -5314.781499692209 520.8778957097289  -3156.751684309539 -663.1532338714219 -13.29949226255838  -6418.068198526531 -1008.000865908107 312.5014510512287  1901.763440165235 7604.209775127374 -1405.037618548886  1054.875220928046 -8036.941360841512 1275.047078901643  7145.831681606543 -5870.32043566114 836.9087666935977  10745.00450945474 1380.053689256009 -932.7213360214188  6101.43951136086 -2980.798395720452 520.9898523021852  -9270.121172349292 -3695.39773748501 1353.325317917145  -1723.278951149278 -5571.594474221675 1741.966507700683  5804.559108839044 3748.742655976826 -1809.230404397718  -10262.91248465424 1382.832025819207 1185.146729344938  3494.940254430664 -6564.147168031568 331.1766069289768  2769.076827215528 3987.094375628754 -562.4847053228261  868.8980441510714 7684.265585045006 -1094.976842995421  -7869.780473578398 5841.134593592128 -705.6098714817413  9983.040839830492 -4658.602993807361 -423.8297913690736  -603.6282887276102 2367.257538713337 50.41003028787263  9296.870929935241 -4612.173022059732 376.1267837244918  -11164.87995979557 2711.790768345125 475.5800320610071  -5284.313447722153 -6487.195956979082 1466.534633945454  -2928.610147238026 -7268.058859133572 1243.553840219497  9920.391500298867 2925.102328345829 -1254.853372903506  -3589.558493439592 4636.217785184605 -1.235350664549856  3342.941793437808 3755.779468429844 -1628.611896757455  -4786.523571642266 1196.328285413952 -253.7536337692768  -4982.010541955807 7517.124798083279 -436.5640830858712  10113.97231762117 -4406.776291365558 113.1954413994435  -32.73013877491803 -7942.013083619542 1150.497166436935  -8350.782849657058 2968.90878149654 -308.4690515738548  -6104.57211129078 2583.973335483573 -441.965955769016  -4111.158163632947 7009.855786013592 -347.1165744721862  -7529.709587185812 -5188.414091199399 1373.287547935983  -7.277744323773948 3.47574872799345 0.3277810504488824  -3956.115100969597 -3197.184547405907 1063.791092945613  6406.319699795233 857.2821055419607 -834.9320252926055  -3131.852784111189 3986.581671049913 -339.9690543322959  5240.81743306542 -3112.214197953674 196.3075737189669  -3425.335555573976 755.9079346216616 -14.0915191989026  -6815.977433499086 1263.294589326069 454.7679660805845  827.7906278317568 4148.487202626802 -1034.729646881307  4963.199661213163 -2492.879312309024 -194.6052507847287  -3738.132661242921 -131.9961547490573 660.3605993773414  3107.465741998121 2857.288919831277 -713.1232298328488  -842.2311719286598 -3503.941042413698 594.5942501542121  1691.406854843234 -5206.515544165965 842.5314953436991  2735.994828578171 1232.263338516767 -807.506148294951 
[...]
<PointData  Vectors="Centrifugal"> 
<DataArray  type="Float64"  Name="Centrifugal"  NumberOfComponents="3" format="ascii">-4.5513022287703570e-06 -6.8333492849613196e-06 3.0035065083926629e-06  3.8203166254310306e-06 6.9795605786918726e-06 -2.9374973067068219e-06  1.2470387367010511e-04 -4.9753467433409395e-06 -1.7946009690725480e-05  2.1587112279687076e-04 -1.3370480152935524e-05 -2.9472928717898170e-05  2.7250638982181821e-04 -1.8519636642385213e-05 -3.6655855200990808e-05  3.0269196738022639e-04 -2.2632093467991955e-05 -4.0026215843516399e-05  3.1140070790661612e-04 -2.6207460093191917e-05 -4.0198807918715900e-05  3.0029609434737635e-04 -2.8648618547237214e-05 -3.7635150541001839e-05  2.6824005234347905e-04 -2.8983841139263852e-05 -3.2481588232150878e-05  2.1022986596879701e-04 -2.6096380424189284e-05 -2.4325239126988059e-05  1.1750543440404059e-04 -1.8416361407917524e-05 -1.2314014385872586e-05  1.5963609130923678e-04 -8.0845254372909349e-05 1.9608555336189021e-06  1.3690209192274830e-04 3.6972539216758942e-05 -3.3908130795039561e-05  3.0522039626254630e-04 -8.2509004742083278e-05 -2.0377631900747898e-05  2.3979361057829981e-04 -9.4185069657195045e-05 -6.1791722869602310e-06  2.7114181463577580e-04 3.2266736880874149e-05 -5.3444048447991792e-05  2.7340725655197013e-04 3.9907596214607364e-05 -5.6358413000109031e-05  1.5661663411731694e-04 5.6237744680479889e-05 -4.3458370148176605e-05  6.4530941310557557e-05 -8.0141900240790704e-05 1.6682207945730934e-05  2.4456972998054637e-04 -7.7842067365659632e-05 -1.2401776329367191e-05  1.8364822823786859e-04 -1.3269566895552867e-04 1.5543582884049970e-05  2.4656006830964255e-04 -1.3215726297540414e-04 5.4694215786381756e-06  1.8020994395392373e-04 -1.7495036258804804e-04 3.0230778461929081e-05  2.3348135902477636e-04 -1.6824519625038934e-04 1.9608157763586374e-05  1.5878206385155588e-04 -2.0105653060383525e-04 4.2340757214521538e-05  2.0988884124652435e-04 -1.8824884013658480e-04 3.0015493889567420e-05  1.2411425267714563e-04 -2.1211282671326789e-04 5.1494376072168834e-05  1.6792783150907512e-04 -1.9514351211653806e-04 3.8922814433313187e-05  7.6490614837249033e-05 -2.0751579123788779e-04 5.7444922443973122e-05  1.1820447584130162e-04 -1.8286877667437307e-04 4.2633154589147286e-05  1.6561165471910391e-05 -1.8485212431388869e-04 5.9282221054967855e-05  2.4024486011311758e-04 -1.6318559366278231e-04 1.6850580598601988e-05  2.2539439933817415e-04 3.5558096436180446e-05 -4.7351440647554491e-05  2.1191223589877247e-04 9.1681270596783389e-05 -6.4020656533168705e-05  2.5066134890799164e-04 8.3552572451433846e-05 -6.7393172740888213e-05  5.5358948653951225e-05 -1.5111892979316490e-04 4.1887087139989229e-05  1.5623848627237862e-04 -1.4216173605773445e-04 2.3023358990247136e-05  1.4966425719904335e-04 9.5140891443403362e-05 -5.5389399562946607e-05  1.2923420822825334e-04 1.4392694597353787e-04 -6.8509549791404491e-05  3.0430912263461731e-04 -8.4057705172978033e-05 -1.9715829154804400e-05  2.7590298807703411e-04 -1.4036451276480317e-04 3.6024802929796799e-06  2.8864872240208733e-04 -8.0804177171827821e-05 -1.8342227233557862e-05  5.2837398640183684e-05 6.8626445257888668e-05 -3.1285019842631501e-05  2.2785011233055120e-04 4.5416626767679207e-05 -5.1038183573736671e-05  2.1367232660523988e-04 9.9671284768361454e-05 -6.6972440123188134e-05  9.3408000361994164e-05 -1.9805326808507135e-04 5.1616426191831001e-05  -2.3691225832977817e-05 -1.9956393073415464e-04 7.0537935878973174e-05  9.5326826514403849e-05 -1.3116236482706921e-04 2.8920221393352342e-05  2.5043311555236091e-04 8.9301732890169659e-05 -6.9282043577659146e-05  1.8001498398460250e-04 1.4246014741434287e-04 -7.6004580899704179e-05  1.2940322460175575e-04 1.4898634703186238e-04 -7.0229969716135659e-05  8.9226789974126576e-05 1.8310684238253492e-04 -7.5334790520630653e-05  2.9960526220003760e-05 1.8368850379612241e-04 -6.6208943180971313e-05  -1.0474477198827488e-05 2.0721229973734879e-04 -6.7725425664463590e-05  -7.3935507896275902e-05 1.9805457272292827e-04 -5.4679228510820715e-05  -1.0673445995639106e-04 2.1220426824072660e-04 -5.4258244358695524e-05  -1.6742816451659819e-04 1.9338321029033811e-04 -3.8412062869141456e-05  -4.2702488537258376e-05 2.1394302368687163e-04 -6.4910430086823740e-05  -8.7625222167361645e-05 -1.6658051160058592e-04 6.9550059614319106e-05  -1.1952778614288582e-04 -1.7392345905137930e-04 7.7025604646773367e-05  -1.9011963649358718e-04 1.9685970099070862e-04 -3.6007356571359817e-05  -2.4010968404867875e-04 1.6564258666642976e-04 -1.7694417119179875e-05  -2.5267273511229082e-04 1.6240799717740602e-04 -1.4635763604480833e-05  -2.8808346383942229e-04 1.1977079002493767e-04 5.2076797616850556e-06  -2.9246711285032341e-04 1.1220267027123353e-04 8.4308142448613421e-06  -2.6439413221392464e-04 1.1815287932122956e-04 2.0238089291905516e-06  -2.4891934329064527e-04 1.5055518009911382e-04 -1.1257834967215605e-05  -2.9984156975371292e-04 6.7861341853888113e-05 2.4435622344121809e-05  -2.7950221011124264e-04 9.4564584280180686e-05 1.2296936269785189e-05  -2.6755412658512658e-04 5.5198736517508815e-05 2.3597217618944869e-05  -2.8376076669565719e-04 -2.4441972689313639e-07 4.4707816272367926e-05  -2.2521590794013745e-04 1.2946660200894384e-04 -7.9253295763282251e-06  -4.2863329186266488e-05 -1.0250605137093670e-04 4.1059005422164861e-05  -1.8042750570733323e-04 -1.3193142848689910e-04 7.2544541674718157e-05  -2.3925555097875477e-04 -1.2991237659444399e-05 4.1976162058249062e-05  -2.4095245941600142e-04 -6.5701721477798931e-05 5.9889997129639676e-05  -3.0587924658513312e-04 4.8429900645087264e-05 3.1890606747787282e-05  -1.3161001324603266e-04 1.6881221378359690e-04 -3.5818912649812862e-05  -2.4512608230931314e-04 6.5997450666965943e-05 1.6454736785581061e-05  5.2347453228144521e-05 1.4335252549638647e-04 -5.6225548946600630e-05  -2.8068651546909546e-04 -4.7385679674720308e-05 6.0006785850894288e-05  -2.0941945314593115e-04 4.2590288450205369e-05 1.8675785015097943e-05  -1.7960891187682439e-04 1.0177933270617567e-04 -5.8283356092414591e-06  -1.7926858375077976e-04 -7.9827848018819506e-05 5.4918499180242340e-05  -1.7274827061567526e-04 -1.2507817595918002e-04 6.9042453531287674e-05  -1.8345199969290452e-04 1.7612118681080443e-04 -3.0112893382971654e-05  -5.4840295670979342e-05 -1.9889348249041745e-04 7.5212173060518753e-05  -1.8391773985966238e-04 2.6089819977185588e-05 2.0189426544902354e-05  -2.4388246458954973e-04 -5.5951186966188322e-06 4.0227669045417347e-05  -9.5381286840668893e-05 -1.3598412796083181e-04 6.0526448436613400e-05  -8.6122520629435058e-05 -1.7129441144035217e-04 7.0891904238311326e-05  -9.2293412128765094e-05 -8.5515789336986056e-05 4.3144510225830552e-05  1.3801881800491620e-04 1.6897946988256185e-04 -7.8278419019990877e-05  -1.9787843251734173e-04 -1.3542930973434181e-04 7.6460040572439922e-05  -2.5015972497720860e-04 -8.4974009241275120e-05 6.7790167753383734e-05  3.2694773149796744e-05 1.8152878099723347e-04 -6.5915893243124373e-05  -4.8497807571626948e-05 1.7466593962437292e-04 -5.0849427897684279e-05  -3.0753650918245711e-05 1.3537174844145222e-04 -4.0484663077273468e-05  -1.1730835156257908e-04 6.5737960214566548e-05 -3.5598013134593072e-06  -1.4422526741707906e-04 -1.1600157132997003e-04 6.1517987356466254e-05  6.5660568958050329e-05 1.4926121556733550e-04 -6.0297425748433377e-05  -1.5629028361095320e-04 -1.5441320402550087e-04 7.6275256313703684e-05  -4.0460598920602995e-05 1.3067100542030058e-04 -3.7384323873744887e-05  -6.8404153958573054e-05 6.7818772648441938e-05 -1.1947416465210782e-05  -6.3450916932643594e-05 2.0325556990796983e-04 -5.8069345029893927e-05  -8.1852192404715426e-05 -3.7745842932705195e-05 2.5509535196252258e-05  1.8137682281709249e-06 -1.7725165178827883e-04 5.9056922750681629e-05  -1.6353862428049415e-04 -5.0191232210886636e-05 4.2522650597708923e-05  -2.2703315588304922e-04 -7.3918917802149974e-05 6.0451999874853359e-05  -2.7953787889195125e-04 -2.2228296445711370e-05 5.1403691460194226e-05  -2.9347761991338798e-04 -3.0143630664911935e-05 5.6245920637602090e-05  -3.0844791963217596e-04 2.0016137181041326e-05 4.1807230057467727e-05  -1.4988846316791254e-04 1.2218469969026187e-04 -1.7333881421766793e-05  -2.0976722203259492e-04 1.3309986866773423e-04 -1.1571269337734082e-05  -8.6019775825438862e-07 -1.9860418709832954e-04 6.6626073054929086e-05  -3.0945849051974089e-05 1.7458509349965243e-04 -5.3582691783478703e-05  1.0311017424868667e-04 1.7493390102844562e-04 -7.4781955032106933e-05  2.8353501649605275e-04 -8.6014721936199807e-05 -1.5793573137009223e-05  3.3141600733987220e-05 -6.6799892039637302e-05 1.7151913841756033e-05  7.6177209783708918e-05 -2.1224185586243163e-04 5.9076451964715214e-05  -1.2942577270925212e-04 1.5317222584038671e-04 -3.0926300713580009e-05  2.9380460509574960e-04 3.0932352057503302e-05 -5.6561400786522056e-05  1.8366187048767608e-04 1.3584774087366814e-04 -7.4364342180684579e-05  2.1998875889090366e-04 1.2009828046037629e-04 -7.4804565519742564e-05  -2.2593010513888561e-04 -1.0568762911432831e-04 7.0914389646960956e-05  -1.2960332082695306e-04 2.1070311766830955e-04 -5.0159173820101926e-05  -1.9715100028133329e-04 1.8991941526769939e-04 -3.2578018821367830e-05  3.1137370818244621e-06 -1.3763355703492580e-04 4.5588720214732489e-05  -8.4341331878979401e-05 -1.2613049909961483e-05 1.7486772709113317e-05  -1.7337000468835642e-04 -1.9899665973002206e-05 3.3927466475162909e-05  4.7426032074725698e-05 2.0031315052501151e-04 -7.4521451109793916e-05  3.3645559923996316e-05 -2.1377022589798910e-04 6.6276928076745107e-05  1.9749296680904210e-04 -1.6318841627624783e-04 2.3574954799454176e-05  2.9287021748738133e-04 2.8879281870779703e-05 -5.5727104794555266e-05  1.6658889554503978e-04 -8.6657339484616898e-05 2.8132450210857805e-06  -2.5160686796291116e-04 -9.2380503031148833e-05 7.0497378160049146e-05  -4.6372640634505394e-05 -1.5212141803270417e-04 5.8221654500329202e-05  1.5925300473886519e-04 1.0181351744472167e-04 -5.9131317492936523e-05  -2.8413868472308246e-04 3.7797963462379082e-05 3.2031021931408030e-05  1.0140279480273851e-04 -1.7189726746757444e-04 4.1602334738686909e-05  7.2026152462078679e-05 1.0126683762843516e-04 -4.5230455809238985e-05  1.8184024096668729e-05 2.0103897330397348e-04 -7.0165669230948073e-05  -2.1760377578391635e-04 1.6228044705964017e-04 -2.0108224169526893e-05  2.7783093137156425e-04 -1.2597603337136424e-04 -1.5178461442556220e-06  -1.9414980890937912e-05 5.9705154368930384e-05 -1.6935396940431570e-05  2.5601994543643050e-04 -1.3050000476797895e-04 3.4268680512547913e-06  -3.0767582738782870e-04 7.8155064054929654e-05 2.2221446237825814e-05  -1.4060046664345882e-04 -1.6850470857915665e-04 7.8525479607383984e-05  -7.4997471437663552e-05 -1.8924240418868315e-04 7.5151126934963082e-05  2.6981807899508999e-04 7.1389809773931697e-05 -6.6333902250549396e-05  -1.0272699941007510e-04 1.2080262686845021e-04 -2.4288082336824111e-05  9.1929945730942825e-05 1.0354651798971426e-04 -4.9123865704322766e-05  -1.2975812418750623e-04 3.8024247948033681e-05 7.6764148224486408e-06  -1.4252912115084065e-04 1.9861664311023101e-04 -4.4079945161385615e-05  2.7899559406177100e-04 -1.2422714380405677e-04 -2.2865198524761706e-06  4.5655880605228009e-06 -2.0901259060627296e-04 6.9257414661949747e-05  -2.2838457926649245e-04 8.7443576464965345e-05 6.6419047145841595e-06  -1.6646977662891304e-04 7.6043615645929422e-05 7.2139539390428931e-07  -1.1860153143502744e-04 1.8401661279775236e-04 -4.2954995769088078e-05  -2.0266360607044517e-04 -1.3226689723847619e-04 7.6153841164593506e-05  -1.9511592729398760e-07 9.0818811278997317e-08 2.7987262411921611e-10  -1.0699818501202108e-04 -8.4095126071583850e-05 4.4981449915503184e-05  1.7524599856280081e-04 2.0434636405362312e-05 -3.4401599977926023e-05  -8.8220120014477745e-05 1.0670545757713833e-04 -2.1849926406958108e-05  1.4469409521495751e-04 -8.6199186914641391e-05 6.1031726697848473e-06  -9.3339341749037891e-05 2.3309165264099555e-05 6.8754398283994162e-06  -1.8750826304039583e-04 3.6414317179035410e-05 1.7297551129375451e-05  2.1203769805571068e-05 1.1160687170509094e-04 -4.0699556201855492e-05  1.3789339021511111e-04 -6.7087238028882645e-05 7.7419520667479453e-07  -1.0329386797654329e-04 -4.1229530153994485e-06 1.7624962974065068e-05  8.3114865283576768e-05 7.3720080675162357e-05 -3.7751943662787633e-05  -2.0683651492129923e-05 -9.1771861502333948e-05 3.3977186381087528e-05  4.8909353475773556e-05 -1.3971857898531189e-04 3.9084661652320464e-05  7.5438941276756956e-05 3.4176258710043852e-05 -2.3305884500773437e-05  -1.6544291425403066e-05 -1.0868178131703689e-04 3.8987485146387193e-05  7.0047581752969503e-05 -2.4403089857414945e-05 -2.8461969222035200e-06  -1.3799244676281926e-04 1.1831433545793284e-04 -1.7908961974917576e-05  -1.7614391555252978e-04 -3.0950001064795476e-05 3.8063256080972492e-05  1.8652731313417435e-04 -1.4085475683721562e-05 -2.4618764604544355e-05  -3.9261565525356005e-05 6.6905454429207206e-05 -1.6224791316538123e-05  1.7496459147672268e-05 1.3975519911426940e-04 -4.9540313728715624e-05  1.4729713380968356e-04 7.3944884949611063e-05 -4.7920909597085202e-05  1.3709293756552493e-04 1.0432518088672758e-04 -5.6487168236856171e-05  -1.8972141099519492e-04 7.0289030030788719e-05 6.3046728778372156e-06  2.2159550863381732e-04 -6.4535878132240606e-05 -1.3243492685749479e-05  -5.8001896893720888e-05 1.0700053312846031e-04 -2.6701021015580068e-05  -2.0342673650338940e-04 -3.2609294187933094e-05 4.2909438116282055e-05  2.0795671454319607e-04 -8.0835166559769108e-06 -2.9998284641374093e-05  1.6542502580558781e-04 -1.3106224544149521e-04 1.7862622627471271e-05  -2.0173580347294286e-04 6.5656359661716218e-05 9.7451051055339216e-06  5.9540052049641496e-05 -5.0547676905957118e-05 7.5592417860628957e-06  -5.0260779207967426e-05 -1.3930142386579697e-04 5.4541115286315330e-05  -4.7817335335130161e-05 -1.4829020373908155e-04 5.7166202085513790e-05  9.8000559922239525e-05 -1.4787289518275343e-04 3.4094260047824097e-05  -1.8761394013149134e-04 1.3117626568420675e-04 -1.4411228548295040e-05  8.8844304921392408e-05 -1.3965119194537029e-04 3.2781681730398719e-05  -6.8639094384338227e-05 1.6103137880097413e-04 -4.3117162300688664e-05  -1.1520418607402081e-04 -4.6603580765396150e-05 3.3720163990033517e-05  1.9139481327408171e-04 5.5981291382497115e-05 -4.8841945252192344e-05  1.6757999246835960e-05 7.2348136024572214e-05 -2.6856935281612125e-05  7.9256977179049145e-05 3.3996750890646419e-05 -2.3846235114162255e-05  </DataArray> 
</PointData> 
</Piece>
</UnstructuredGrid>
</VTKFile>