<?xml version="1.0"?>
<VTKFile type="UnstructuredGrid"  version="0.1"  >
<UnstructuredGrid>
<Piece  NumberOfPoints="201" NumberOfCells="657">
<Points>
<DataArray  type="Float64"  NumberOfComponents="3"  format="ascii">-0.003974825754091571 -0.003244211705073487 2646.715812600282  -0.005549605465294444 0.03288724439505833 -2646.716000511741  140.0732437460253 0.04516229518044509 -2517.076085746864  266.3372092811239 0.05720751835014237 -2140.92556805341  366.4006833259111 0.003724961564452555 -1555.270407407308  430.5413757209122 -0.009684395991713991 -817.5655648899102  452.6436789197739 -0.02202710114813581 -0.004043135842411718  430.537477352738 -0.004557637608496004 817.5686203025138  366.3921916162371 0.02340101979400038 1555.244449363284  266.3430338396372 0.01400256174507516 2140.910086215488  140.0780834480239 0.00415790653818128 2517.072118298438  177.4982162485923 -832.84158291631 -2301.143483012322  176.3161031577133 646.9397372433131 2358.21633054829  431.0090149912681 -742.9896961199946 -392.2348903900951  310.5610125309433 -809.7171796262614 1764.587900554049  392.1216828418321 751.1125878296041 1112.611414109533  390.4953330731331 751.1049448854549 -1132.033140647429  198.1804614733906 745.5531390263651 -2270.796162149061  68.30403975972973 -745.1733896627238 2517.340396693937  308.5225227070256 -746.122638143452 -1801.877411374738  214.9792669011927 -1463.198393979067 -1862.753968469741  319.2711195285935 -1435.223692579819 -1282.777149905743  219.19287948811 -2050.624363833711 -1232.628180373585  308.6756203864103 -1925.628637024388 -606.9305106370175  193.9307488448961 -2441.546225236504 -515.7668072996605  275.9436223534527 -2191.99280095906 130.4349334038239  145.1087292460044 -2608.206857763896 235.4195310978008  210.3241685724606 -2266.196488810103 892.8758377957903  75.81792202103169 -2538.495118116351 949.7162359252009  134.5827839126678 -2070.45673001204 1568.609421965719  -5.234543437461611 -2223.663466520666 1571.833094222767  322.1294044961523 -1781.340784928806 753.1926410738171  308.5238220580617 746.1170262547726 1801.886078282821  312.8102946402587 1444.603173531143 1326.775523267471  378.6555250979836 1385.140839413644 600.4255884756359  50.31954542310874 -1651.98414819069 2101.764938599671  184.1550572321386 -1449.098951845537 1981.447683397829  214.9453655244992 1379.702628410846 1920.316345530719  207.2866777072681 2018.747646508003 1345.494913904524  431.8268817271871 -724.8576415907152 392.1775146985441  381.0975726223355 -1497.368265369151 45.42328276520831  392.9821071866588 -751.792053177651 -1101.7025018769  68.30000043696273 745.2095555395298 -2517.368657734114  305.4667256285419 727.3754958808705 -1826.577354039627  310.4159368094416 1436.783312557807 -1353.410364827136  94.13353252170094 -2462.758594917594 -1069.582027918467  -65.87625779366866 -2568.651204877608 899.1094995927904  91.74235163698154 -1500.000835208074 -2157.841065507094  376.0667315943833 1401.635733728314 -620.5091512145865  281.6081731406155 2023.565626006062 -747.2202342404092  199.9903706565522 1968.326135779726 -1447.50782620395  158.039648159636 2451.416045450996 -805.8961165525902  69.8010083407169 2301.104497447695 -1408.928445072682  20.45890045402613 2653.396460911405 -731.4464520679888  -71.57429151791005 2367.67466475943 -1300.633801095816  -118.1430100440383 2606.31154725124 -551.6137866108998  -208.0320781869476 2226.301218424491 -996.7326800531526  -22.73109799014073 2759.988514851523 48.84386575413749  -145.0368695952793 -2138.156715277448 1449.246656697547  -200.3954833802611 -2365.42199572008 717.5520519945565  -244.271506260149 2314.231478586028 -269.36910756445  -322.3089478543731 1810.911921882564 -683.2932541930928  -343.2834418794731 1807.239528303503 61.13957127639961  -402.2283502293106 1192.835117479328 -426.9404441280978  -407.7056325282128 1132.280114671454 398.349332513264  -357.4248942749985 1130.073180572134 -1215.821343304768  -330.0706292260456 1672.0344842166 857.6012486861267  -425.2604042095171 494.5561960261909 -775.1761562795568  -376.6666544657261 930.490224166101 1170.477381525123  -362.1313762507519 317.2895776287869 -1560.017514115608  -406.5388330611697 -359.0860901304615 -1113.398340849148  -280.4856897288863 1401.510707266695 1589.355955648209  -62.65163942033837 -1144.389339399149 2381.362060201798  -273.3464030040685 -1829.669101220097 1181.802831121296  -325.4817068625929 -486.060412094961 -1780.89038964753  -351.7563620357138 -1141.259094562854 -1261.853436852668  -434.9760461269286 313.8868583330006 668.9534279321673  -151.7314943171318 1842.972640814004 -1763.335855825731  -309.9802317873014 598.4976141514308 1843.176312700615  97.62229998738057 1861.936284003205 1871.691439866292  -419.2863100270853 -935.5597884443346 -448.4784480868619  -263.7732641096032 194.0718213516636 -2143.786066592758  -205.6175322306977 1065.848479212205 2126.75476179719  -253.6270749362093 -1226.749951908851 -1853.232448015732  -265.7368615254983 -1827.116390873004 -1242.896968760273  -224.0637655682409 2057.118541756183 1192.309025429212  -114.5604594945358 -2669.103932763377 170.4588475123498  -216.4656253248111 179.4437833591971 2318.767663621724  -319.6911596921145 -259.4075375883702 1858.296747936098  -153.4372091298348 -1831.169837709127 -1769.546866270505  -154.0790068015071 -2335.039051442369 -1096.291990515881  -132.123943951573 -1159.18304418251 -2275.719737804048  230.2868976192308 2382.169800162824 -74.72505178750596  -309.3674359665844 -1963.215825131357 469.3567791824423  -372.0874894041658 -1326.312371184548 820.934306624713  81.35623713729326 2397.784787345922 1228.635583028211  -29.36070176849711 2162.126079386758 1640.109839228247  -10.15936917726249 1628.813066213346 2137.678680639309  -122.8119624193483 688.1836789101318 2461.036393406491  -204.90938548894 -1495.480384345237 1877.795364407438  107.0259250507001 1820.326062454352 -1891.656561543059  -254.4648054388599 -2209.32947228296 -577.9652723518221  -33.59957717455632 1396.023145061767 -2276.01077259351  -74.40799904063384 598.5085208803797 -2547.170804234164  -50.57694353384669 2581.482052836467 898.9752590403436  -95.78818128757388 -423.6929805737885 2554.903440822812  -32.82705151301654 -2264.218670412336 -1506.076395846458  -206.9379593466305 -681.0715561689127 2262.603917580031  -318.9714711034739 -1097.467476511799 1559.581476553001  -396.7719053875265 -527.8783819042296 1171.303699622885  -434.0494029675804 -685.5892982265567 371.2542280948546  -450.6898318652449 -89.20006324636927 -229.8140497387143  -174.1838129146126 1186.522995817601 -2163.6529072981  -264.1305683981312 1313.139416282316 -1745.950889295849  -38.65395640001192 -2601.095221652367 -866.5287931917097  -15.44319434745386 2041.271415395892 -1782.412138962095  181.1538140333065 2430.365564357882 691.4659745552574  390.3777915502811 -718.5734507913876 1152.680444605453  22.65930007872304 -781.9745523349729 -2535.162425704948  71.85657239634079 -2695.905023473559 -407.89300063474  -138.205028888793 1764.948028871835 1870.963910239  432.8309179676952 696.5866304648307 -400.5849430058176  289.9357974210858 2005.319100234095 680.9684888297395  341.8536035980763 1818.172705292942 -30.24940031720509  -346.193978157795 -1644.291010425756 -669.2236917959542  -150.5780863911814 2599.425134095804 206.1484051155471  -252.3937936688787 2242.515439992647 484.3057590613717  -24.61022691259957 -1688.780665690841 -2090.468249535878  -105.6443000321613 -308.1918661973675 -2556.824195284472  -222.6584882084593 -494.8537962280486 -2255.920599543497  105.0158926770704 2685.714062442683 -135.312860624847  12.31394911533985 -2745.798925336152 294.3072327264467  250.5139641425631 -1746.790050078234 1440.221215362949  433.5919802856106 705.5082202290554 355.5382292143087  198.2958214718313 -740.1341432080502 2272.055125228334  -383.3369464096017 -1475.060618918714 65.34330054374743  -81.24100641405417 -1822.755700923849 1932.65001408781  220.9699286996996 1337.577457101052 -1924.239786465474  -387.9854920151682 220.5764119077912 1347.998875984071  101.9324962809908 -2057.507234772754 -1664.763372536214  111.1215820209344 1326.518482695532 2229.796077060993  64.7563676525224 2673.370583108346 556.5844348403709  -282.1405626956297 1733.499845919312 -1242.4613899647  378.98985172551 -1333.876288999471 -691.6486061241598  -6.938882963017044 718.3312595175762 2555.481773933815  343.3385267868533 -1297.727112879552 1201.788915177322  -439.605388215389 659.8823599791704 -60.17961296253544  -234.7585380437806 -2367.124809560994 25.53965026496722  -143.4575100364804 -2582.769288468239 -438.8589058770138  406.4454581350076 1222.799800522489 -18.41418141637467  -101.2574833880142 1360.924969417932 2226.776704688853  125.9857498333324 1235.888251244065 -2250.484485756239  -152.8343268989242 202.9767698190944 -2484.072741316648  -166.0923184165508 2418.524963056501 841.3104401859435  385.4017164570556 -1240.662859138157 727.7505774386645  -30.96486079109122 -2743.542252980752 -265.9396443158833  -290.6405023048349 718.7023992000148 -1910.479093548056  -198.6901037828038 610.4102970825694 -2305.926598920012  -126.9937556186972 2223.268612490707 1388.002402981044  -319.0298540750662 -1960.996326529902 -148.0971971219292  -0.005494834288441911 0.000768590872286703 -0.008759048454586469  -144.4347491607774 -1083.27188265168 73.30336072099588  218.2606932611845 422.5668412611905 -12.10892711727763  -87.01725320308476 1138.431721644951 582.9913111248972  162.7535883054825 -807.1761490331621 530.317240647705  -106.0146190016048 118.0941421155582 -1178.10899229641  -224.4577407022043 215.0871190557771 0.9689224209701786  42.92766708191767 1287.634557032325 -506.2732913109477  151.6661323466764 -634.6530841970914 -792.682116039592  -117.9540037097905 -120.565075689393 1142.648223469366  113.1636758611212 958.0571206974773 921.4756337180196  -41.796203685451 -1093.180892253733 -1001.038488082951  37.40866884167248 -1578.976591468406 4.891524129325182  90.08248405016352 419.
[...]
<PointData  Vectors="Coriolis"> 
<DataArray  type="Float64"  Name="Coriolis"  NumberOfComponents="3" format="ascii">-3.1167416225490089e-14 3.9003913432042186e-14 0.0000000000000000e+00  3.2711840933321169e-13 5.4445195465003519e-14 0.0000000000000000e+00  4.4870776518227140e-13 3.2505403294417331e-12 0.0000000000000000e+00  5.6770348616738365e-13 7.1466153004925628e-12 0.0000000000000000e+00  3.6607397464669779e-14 1.1617390712217746e-11 0.0000000000000000e+00  -9.8020152358495686e-14 1.5510373330095767e-11 0.0000000000000000e+00  -2.2081608042885423e-13 1.6841566994290638e-11 0.0000000000000000e+00  -4.4728200301721403e-14 1.5549158034051493e-11 0.0000000000000000e+00  2.3302931801875369e-13 1.1701605327558013e-11 0.0000000000000000e+00  1.3937316321377147e-13 7.0899527765685720e-12 0.0000000000000000e+00  4.1829402766835685e-14 3.2033408131796327e-12 0.0000000000000000e+00  -3.8422589645425978e-11 3.7410035658829195e-12 0.0000000000000000e+00  2.9987438487931127e-11 3.9723412293854470e-12 0.0000000000000000e+00  -5.0122384349760989e-11 1.4441863527345396e-11 0.0000000000000000e+00  -4.4318954769462036e-11 8.0530087314957119e-12 0.0000000000000000e+00  4.7066062707492231e-11 1.2191389462743827e-11 0.0000000000000000e+00  4.7076452328826215e-11 1.2101393979996185e-11 0.0000000000000000e+00  3.5351615956556553e-11 4.3494860271054239e-12 0.0000000000000000e+00  -3.1591289933561796e-11 1.3442576031581011e-12 0.0000000000000000e+00  -4.0994215256326375e-11 8.2576665377700728e-12 0.0000000000000000e+00  -7.3207537074369914e-11 3.5481794396731541e-12 0.0000000000000000e+00  -8.2304333519306111e-11 6.7241153904168739e-12 0.0000000000000000e+00  -1.0759080928205366e-10 1.9185370524643661e-12 0.0000000000000000e+00  -1.1224899436325416e-10 4.3466931238662647e-12 0.0000000000000000e+00  -1.2955319331382466e-10 3.0982616681756469e-13 0.0000000000000000e+00  -1.2471323443249585e-10 2.3190866052020605e-12 0.0000000000000000e+00  -1.3519904571193948e-10 -4.0795213240858642e-13 0.0000000000000000e+00  -1.2002414732562540e-10 9.3109918622944339e-13 0.0000000000000000e+00  -1.2509928603778908e-10 -1.9051516956840393e-13 0.0000000000000000e+00  -1.0035967725017454e-10 7.4838441782127399e-13 0.0000000000000000e+00  -1.0427676982820134e-10 2.1483071746094575e-14 0.0000000000000000e+00  -1.0492050788002074e-10 5.5605853140434976e-12 0.0000000000000000e+00  4.0938430454299917e-11 8.2454301886904321e-12 0.0000000000000000e+00  8.1954473814778347e-11 6.3472059517755251e-12 0.0000000000000000e+00  8.7059505151099182e-11 9.3344478895198548e-12 0.0000000000000000e+00  -7.4918474680717140e-11 5.1799167430040024e-13 0.0000000000000000e+00  -7.0216965903899950e-11 2.9962503291194015e-12 0.0000000000000000e+00  6.8563326228927341e-11 3.6582879742747320e-12 0.0000000000000000e+00  1.0404458641269465e-10 1.8579637042209011e-12 0.0000000000000000e+00  -4.8644399568101001e-11 1.4541750457337791e-11 0.0000000000000000e+00  -9.4981016375030593e-11 9.2294189648397630e-12 0.0000000000000000e+00  -4.7202778258608186e-11 1.2296755341191971e-11 0.0000000000000000e+00  3.1949510813109241e-11 1.3838803003378287e-12 0.0000000000000000e+00  3.9667032112792341e-11 8.0253977140920860e-12 0.0000000000000000e+00  8.1056103459529315e-11 6.3035700058402154e-12 0.0000000000000000e+00  -1.2144620500972964e-10 -5.0927393932406756e-14 0.0000000000000000e+00  -1.2660111057175276e-10 2.2307728207410773e-13 0.0000000000000000e+00  -6.7546060915151635e-11 1.2253867492533114e-12 0.0000000000000000e+00  8.7898149741392806e-11 9.2843299957301093e-12 0.0000000000000000e+00  1.1394583896453064e-10 3.1465690168534708e-12 0.0000000000000000e+00  1.0010398295135741e-10 1.8960180949728057e-12 0.0000000000000000e+00  1.2575341056794166e-10 5.1854541824112838e-14 0.0000000000000000e+00  1.1017902499623041e-10 2.1260631163111857e-13 0.0000000000000000e+00  1.3064782609623379e-10 -1.9014630439618540e-13 0.0000000000000000e+00  1.1428409231794319e-10 -2.4778540141681073e-14 0.0000000000000000e+00  1.3208683191251486e-10 3.4855336265300215e-13 0.0000000000000000e+00  1.1682805670241328e-10 -1.1621657106806318e-12 0.0000000000000000e+00  1.3781570948590742e-10 1.4349841416755657e-13 0.0000000000000000e+00  -1.0524073337302503e-10 -7.2641788902552163e-13 0.0000000000000000e+00  -1.2524340363330631e-10 -4.3164867389051207e-13 0.0000000000000000e+00  1.2795532985476680e-10 -1.2252038719811154e-12 0.0000000000000000e+00  1.0671505424346264e-10 -5.2114955403186131e-12 0.0000000000000000e+00  1.0994035534895268e-10 -5.9414255032422442e-12 0.0000000000000000e+00  7.7118272418603381e-11 -1.1479699953965523e-11 0.0000000000000000e+00  7.3655344866111113e-11 -1.1992929732684113e-11 0.0000000000000000e+00  6.7889653766291509e-11 -9.2904979119652088e-12 0.0000000000000000e+00  9.8723081307638148e-11 -6.1465382125241998e-12 0.0000000000000000e+00  3.2687301286333686e-11 -1.4827826675874480e-11 0.0000000000000000e+00  5.7467748529318143e-11 -1.0827037952323675e-11 0.0000000000000000e+00  1.9035719599858262e-11 -1.1220766332405081e-11 0.0000000000000000e+00  -2.2750417359484022e-11 -1.3697944532893253e-11 0.0000000000000000e+00  7.5591246657827043e-11 -5.3507892124936499e-12 0.0000000000000000e+00  -4.9602400423876644e-11 -1.0562110960556121e-12 0.0000000000000000e+00  -1.0092077545273603e-10 -3.8822954321063053e-12 0.0000000000000000e+00  -2.7080007229612186e-11 -9.3964415696058433e-12 0.0000000000000000e+00  -6.7829080218392366e-11 -9.0163517947674500e-12 0.0000000000000000e+00  2.0980251628485820e-11 -1.5616831979595264e-11 0.0000000000000000e+00  8.8838357217853849e-11 -1.5449520069478074e-12 0.0000000000000000e+00  3.2655161639050905e-11 -8.4402698820015009e-12 0.0000000000000000e+00  8.6669042197836941e-11 9.0053521968664026e-13 0.0000000000000000e+00  -6.2052295848741393e-11 -1.3259489004710909e-11 0.0000000000000000e+00  1.0178374467373829e-11 -6.9113151187470026e-12 0.0000000000000000e+00  5.2015595234666773e-11 -4.2514599796189928e-12 0.0000000000000000e+00  -6.3221519026403198e-11 -5.0748176330608700e-12 0.0000000000000000e+00  -9.9691412744971740e-11 -3.6664691246520527e-12 0.0000000000000000e+00  1.0862196341945496e-10 -2.0138347684173464e-12 0.0000000000000000e+00  -1.3653024474948075e-10 4.9703365967721157e-13 0.0000000000000000e+00  8.5969421288843912e-12 -5.2724528523076835e-12 0.0000000000000000e+00  -1.4014620876301297e-11 -9.3498369348679132e-12 0.0000000000000000e+00  -8.8222898092037879e-11 -1.6029654707586948e-12 0.0000000000000000e+00  -1.1817089200404912e-10 -2.9734563118099458e-13 0.0000000000000000e+00  -5.2157749555001036e-11 -2.2981494105504297e-12 0.0000000000000000e+00  1.3022939575659894e-10 7.7666908590381994e-13 0.0000000000000000e+00  -1.1513496318972352e-10 -4.2900437183558324e-12 0.0000000000000000e+00  -8.2145967055501932e-11 -9.2970204190161069e-12 0.0000000000000000e+00  1.1699671198398175e-10 1.0112097673971663e-13 0.0000000000000000e+00  1.0132723373063191e-10 -1.0781239744249341e-13 0.0000000000000000e+00  7.2697179331624267e-11 -1.5566172210686374e-13 0.0000000000000000e+00  3.0859008191732032e-11 -2.6518270674023149e-12 0.0000000000000000e+00  -7.4317641583281779e-11 -3.4635031468552735e-12 0.0000000000000000e+00  8.5004486935274179e-11 1.0617906181277027e-12 0.0000000000000000e+00  -1.2314432902977895e-10 -1.9605927482284019e-12 0.0000000000000000e+00  6.0917872217886541e-11 -4.5147126500900269e-13 0.0000000000000000e+00  2.5563080647368425e-11 -1.4535765233799233e-12 0.0000000000000000e+00  1.2706261210317991e-10 2.0732841763117775e-13 0.0000000000000000e+00  -1.8823908912956114e-11 -2.0394614843410541e-12 0.0000000000000000e+00  -1.0719122478036864e-10 -5.1289297758113835e-14 0.0000000000000000e+00  -3.1977796096959782e-11 -4.7143435241106919e-12 0.0000000000000000e+00  -6.1578406230561002e-11 -7.7727069053447319e-12 0.0000000000000000e+00  -3.3365387766948218e-11 -1.2941151868664011e-11 0.0000000000000000e+00  -4.6303613942087169e-11 -1.4913234177104012e-11 0.0000000000000000e+00  -6.2770919271923774e-12 -1.6839626616224425e-11 0.0000000000000000e+00  5.5852303192452149e-11 -3.1492246364652302e-12 0.0000000000000000e+00  6.8729646934901145e-11 -5.2892774089524780e-12 0.0000000000000000e+00  -1.2789348499608294e-10 1.6020669573473813e-13 0.0000000000000000e+00  9.4234736529443608e-11 -1.2514333255703591e-13 0.0000000000000000e+00  1.2696582667148752e-10 2.3244571779551505e-13 0.0000000000000000e+00  -4.5072123382528909e-11 1.1968396919691274e-11 0.0000000000000000e+00  -3.2588431519953655e-11 4.2421694879791032e-13 0.0000000000000000e+00  -1.3572760548055312e-10 -3.8074301119382029e-13 0.0000000000000000e+00  8.3742428317732887e-11 -1.4712248395071994e-12 0.0000000000000000e+00  4.6717693478364391e-11 1.4704723900791704e-11 0.0000000000000000e+00  1.1424239368792681e-10 3.4674272836404818e-12 0.0000000000000000e+00  1.1047518152939388e-10 5.8621785103376351e-12 0.0000000000000000e+00  -9.9258259694052987e-11 -6.8507449077733405e-12 0.0000000000000000e+00  1.3480213689341535e-10 4.2056619240307240e-13 0.0000000000000000e+00  1.2410615369823962e-10 -1.5819137476811193e-12 0.0000000000000000e+00  -7.5561327599610281e-11 -3.1068023941192942e-13 0.0000000000000000e+00  -1.3313440165710172e-11 -2.2799763239998632e-12 0.0000000000000000e+00  -2.3648764516306109e-11 -5.3742080883766948e-12 0.0000000000000000e+00  1.3680575195068271e-10 -5.0742153937708592e-13 0.0000000000000000e+00  -1.3717390307508511e-10 -1.3609398038681833e-13 0.0000000000000000e+00  -9.2869276467352439e-11 3.6949279460857219e-12 0.0000000000000000e+00  4.7413449112432601e-11 1.4775886321550078e-11 0.0000000000000000e+00  -3.4577637894357641e-11 4.3146156908321872e-12 0.0000000000000000e+00  -9.4216228815225364e-11 -9.3712187189526689e-12 0.0000000000000000e+00  -8.4270306105518047e-11 -8.3782502921668467e-13 0.0000000000000000e+00  6.6336136481414534e-11 3.9562724672694902e-12 0.0000000000000000e+00  1.3851224312996441e-11 -1.2799989886694489e-11 0.0000000000000000e+00  -9.7591278079751427e-11 6.3514616799433899e-13 0.0000000000000000e+00  6.0014244087716328e-11 1.6642527936007970e-12 0.0000000000000000e+00  1.3322859641973696e-10 -2.9878906153833862e-13 0.0000000000000000e+00  9.5721023592859418e-11 -4.3131836464834162e-12 0.0000000000000000e+00  -8.3556286469986183e-11 9.6922785877601370e-12 0.0000000000000000e+00  3.1062095416306336e-11 -1.3690508130018845e-13 0.0000000000000000e+00  -7.6665687773362836e-11 8.1064934484649774e-12 0.0000000000000000e+00  4.4879444171211097e-11 -1.5126912839605212e-11 0.0000000000000000e+00  -1.3024312711094765e-10 -8.7477071244578456e-13 0.0000000000000000e+00  -1.3336102501729424e-10 3.7130309461730186e-13 0.0000000000000000e+00  7.9652415559186097e-11 1.1439378614084271e-11 0.0000000000000000e+00  6.1388598599725873e-11 -1.5264757569489662e-12 0.0000000000000000e+00  5.5759211705661473e-11 2.0578974878588063e-12 0.0000000000000000e+00  9.6426725883896800e-12 -3.3981023969594117e-12 0.0000000000000000e+00  1.2451764467452263e-10 -2.2405293532819749e-13 0.0000000000000000e+00  -7.8339330990115081e-11 1.0285084680429989e-11 0.0000000000000000e+00  -1.3735314984782463e-10 1.6932077484936376e-13 0.0000000000000000e+00  3.8122935841922924e-11 -7.3464593481513133e-12 0.0000000000000000e+00  2.8686681968176475e-11 -4.4642958520198457e-12 0.0000000000000000e+00  1.0915237520574971e-10 -5.6712824736420112e-13 0.0000000000000000e+00  -1.1628341175415042e-10 -4.4381560863376637e-12 0.0000000000000000e+00  6.2824040971255933e-15 5.4575132991019095e-14 0.0000000000000000e+00  -7.2768585027918291e-11 -4.3903211141717712e-12 0.0000000000000000e+00  2.9508262916834882e-11 8.0485850405489135e-12 0.0000000000000000e+00  7.4519153367682416e-11 -2.5373454726322727e-12 0.0000000000000000e+00  -5.4395209020577017e-11 5.3359096429704005e-12 0.0000000000000000e+00  7.3990565343121738e-12 -3.6541661097492647e-12 0.0000000000000000e+00  1.5195064423103902e-11 -8.5313714211722131e-12 0.0000000000000000e+00  8.3463314610498146e-11 1.1857648115085892e-12 0.0000000000000000e+00  -4.2388161715313023e-11 5.1099483741203903e-12 0.0000000000000000e+00  -7.8211438982376915e-12 -4.1741754078169085e-12 0.0000000000000000e+00  6.1719201842343562e-11 3.4657984396771603e-12 0.0000000000000000e+00  -6.9003794713343384e-11 -1.1987971537282160e-12 0.0000000000000000e+00  -1.0094962456352537e-10 8.4162437381746737e-13 0.0000000000000000e+00  2.6263829575681060e-11 2.9484595750446491e-12 0.0000000000000000e+00  -7.6581748540799062e-11 -9.8769745592826013e-13 0.0000000000000000e+00  -9.1049996265983370e-12 2.6514068241445798e-12 0.0000000000000000e+00  7.8464311701501679e-11 -4.4101014963591973e-12 0.0000000000000000e+00  -3.8296959594834679e-11 -7.7282019812814436e-12 0.0000000000000000e+00  4.9970740810032065e-12 8.1698455481436022e-12 0.0000000000000000e+00  4.4570951878425396e-11 -8.7821193024767637e-13 0.0000000000000000e+00  1.0511206504013432e-10 9.2925748122596630e-13 0.0000000000000000e+00  6.4562539900514058e-11 5.8466147565075496e-12 0.0000000000000000e+00  9.0795309288553568e-11 4.9995069038292155e-12 0.0000000000000000e+00  4.1787435311684419e-11 -7.4701069310876816e-12 0.0000000000000000e+00  -3.6503026679473367e-11 9.7551518381014107e-12 0.0000000000000000e+00  6.6444485499430887e-11 -1.4186769514859634e-12 0.0000000000000000e+00  -3.9488896118965600e-11 -9.1419126581700073e-12 0.0000000000000000e+00  6.6716488824621772e-12 9.2373926915783361e-12 0.0000000000000000e+00  -8.9458864311890864e-11 5.0478904697029245e-12 0.0000000000000000e+00  3.3645244254354234e-11 -8.4132387094643343e-12 0.0000000000000000e+00  -3.1942587032323474e-11 1.7206720221199146e-12 0.0000000000000000e+00  -1.0664405687165203e-10 -1.6904256092866838e-12 0.0000000000000000e+00  -1.1089522478229443e-10 -1.4691915814198392e-12 0.0000000000000000e+00  -9.7808233430996646e-11 2.0788432143354830e-12 0.0000000000000000e+00  8.8885398551093013e-11 -5.8111944490883316e-12 0.0000000000000000e+00  -9.5538499173580523e-11 1.8212850860838920e-12 0.0000000000000000e+00  1.1292059727893388e-10 -9.9851293309419193e-13 0.0000000000000000e+00  -4.1909296508860331e-11 -4.4280733341629467e-12 0.0000000000000000e+00  5.9102097576705047e-11 8.2376146497117970e-12 0.0000000000000000e+00  5.6720609938415856e-11 1.0677008022173471e-12 0.0000000000000000e+00  3.1081156285098105e-11 3.4465345643285955e-12 0.0000000000000000e+00  </DataArray> 
</PointData> 
</Piece>
</UnstructuredGrid>
</VTKFile>