<?xml version="1.0"?>
<VTKFile type="UnstructuredGrid"  version="0.1"  >
<UnstructuredGrid>
<Piece  NumberOfPoints="201" NumberOfCells="657">
<Points>
<DataArray  type="Float64"  NumberOfComponents="3"  format="ascii">-0.001026092054197691 -0.0008477474555640439 1687.169494822474  -0.001432820813121825 0.008421200049967933 -1687.169548748667  89.26206198265095 0.01157221951287602 -1604.567679113435  169.7612930950396 0.01466913724522615 -1364.868129809264  233.6097106291868 0.0009606403248176831 -991.5823147261382  274.5760977279243 -0.002453667551346362 -521.2828205225114  288.6923742125054 -0.005613717201472416 -0.001043569427197085  274.5750996577981 -0.001176490744764486 521.2836072354928  233.6075323566329 0.005987947100093573 991.5756459889691  169.7628043309236 0.003584084126466818 1364.864170870523  89.2633158593753 0.001057411976628445 1604.566667217822  113.096735698666 -528.5207092880205 -1466.85003939232  112.3533548342321 410.5421733878762 1503.272365734244  274.8327889299362 -470.8936905804645 -250.0782945926764  197.9385664307698 -513.579101180042 1124.916784918621  249.9997717889765 476.1798509859964 709.3471698071108  248.9613806123572 476.1746159422634 -721.7234480432264  126.2815052614057 473.0908998728575 -1447.529134299939  43.51769303558546 -472.993397996908 1604.635482575105  196.6491936962852 -473.2370682708259 -1148.704556562571  136.9409575808575 -928.3251460690558 -1187.272122820185  203.4304849892227 -910.1743273712411 -817.6737004268944  139.5599000309934 -1300.824014775129 -785.5017346402057  196.5967716497878 -1221.102696423246 -386.8079134495113  123.4223410092232 -1548.750093326385 -328.6215708652656  175.689521844657 -1390.129171652609 83.11978255480217  92.32624663144048 -1654.590145831077 149.986715193199  133.8783222977148 -1437.529462150594 568.9435252430558  48.24041814434031 -1610.615658058756 605.0672593360234  85.6722050008628 -1313.721975043362 999.5685978565103  -3.330242073007125 -1411.067027565248 1001.546830169494  205.2048340332744 -1129.564113226377 480.0560959618354  196.6495322934775 473.2356307008225 1148.706781410473  199.3045628726112 916.1565021646338 845.7083289523899  241.3208988951969 878.1211809258444 382.7532596926804  32.04134872098435 -1048.396396857448 1339.487118167359  117.3043722330575 -919.4674087362796 1262.914253695583  136.9235983908392 875.3693453227038 1223.981711683307  131.9808825956883 1280.674773785894 857.4351958842266  275.3570784124573 -459.4116712153203 250.0445872758453  242.8709361448531 -949.2351659586859 28.95817586899423  250.5513798317638 -476.6070284735382 -702.3860055852263  43.51664619596453 473.0026821547255 -1604.642749062511  194.6956648066712 461.3578665683883 -1164.445851400677  197.7791929575897 911.2146178765881 -862.6826576806759  59.90114877156061 -1562.559868600925 -681.4561222539292  -41.91265845382417 -1629.748268546728 572.8162910421588  58.42841028504724 -951.9620542003996 -1375.278151922821  239.6715627647017 888.585830851983 -395.550064123797  179.3259295749394 1283.361111268706 -476.1939910238487  127.3392275494949 1248.739445681929 -922.4498832869094  100.5726143017556 1555.17658157429 -513.470300060073  44.42692669990328 1460.121243302691 -897.7249826722937  13.0119833648252 1683.521730184675 -465.9804569909967  -45.5481824499546 1502.326609337119 -828.701879584229  -75.16850323649686 1653.503411543543 -351.4248205931946  -132.4285830864464 1412.264119788505 -635.1286799605186  -14.45973858046779 1751.077930511083 31.11824969485008  -92.32396038854422 -1356.616613431885 923.4877772545012  -127.5409124338294 -1500.472750224978 457.2059107564158  -155.4925363423777 1467.792961953259 -171.63923979213  -205.3057159105159 1148.313276896021 -435.5004265950172  -218.6812285472477 1145.852706720327 38.97012643193972  -256.4041424935479 756.1255423279565 -272.1790627743184  -259.909401064074 717.7231205949621 253.9561740414063  -227.8086661620579 716.5395540309993 -775.0665673934145  -210.2808255746978 1060.243020020945 546.625270957373  -271.1893050266877 313.4669157852685 -494.239939122977  -240.1124027397751 589.9312168418511 746.2085233730842  -230.877657179416 201.1833011419937 -994.6027310378894  -259.2321383343436 -227.6388693722002 -709.8805895415805  -178.69607044433 888.977863234581 1013.0650879646  -39.90966689754597 -726.3508255395602 1517.85898086439  -174.0966051530079 -1160.471794938403 753.1993635191786  -207.4850882223244 -308.2752361755794 -1135.36994332874  -224.1908821558995 -723.66022746566 -804.406434184869  -277.4022778911065 198.9434079576782 426.5274908486599  -96.615553294135 1169.400920755224 -1123.744914281283  -197.5838040628347 379.6129305865348 1175.051189015879  62.15773862031016 1181.551934901715 1192.779800506884  -267.3275067617212 -592.9816655549416 -285.9242370220812  -168.120652717453 123.1109645087501 -1366.682464432154  -131.010446549426 676.2775562324756 1355.656861391933  -161.5935686924514 -778.2402467031937 -1181.290756647632  -169.2458708365664 -1158.894458999214 -792.1283808773054  -142.6632276469163 1304.917139318837 759.8090663365224  -72.88301025711932 -1693.291719730919 108.5971577384306  -137.9529108036082 113.8627683536759 1478.197026457665  -203.7983821119731 -164.5414660065714 1184.738121431169  -97.70321756645545 -1161.913682225214 -1127.713596951183  -98.06159855769616 -1481.409457560254 -698.5219205657058  -84.16687976024269 -735.6670987183297 -1450.534071657172  146.5760038172672 1510.939167545551 -47.61111565550015  -197.0348548713272 -1244.91123440329 299.1266720869276  -237.1397389400916 -840.8730481639632 523.3200971811739  51.77596974505716 1521.383587641874 782.8193617952265  -18.68819855289389 1372.01991650631 1045.08440392285  -6.471015704386655 1033.736232565459 1362.363725446483  -78.25466024519349 436.7550650404315 1568.776110570066  -130.5295950000704 -948.8257599224889 1196.84730734207  68.14803248539698 1155.136470401911 -1205.517893983093  -162.0073739979581 -1401.221774498303 -368.2955434103704  -21.3988252789682 886.0482929932402 -1450.612917469657  -47.40620974860563 379.8917223556543 -1623.671731647746  -32.17734824844124 1637.895626390219 572.7279433644818  -61.0342319929311 -268.9030949704415 1628.648339501117  -20.89187452666608 -1436.763119678673 -959.6323815429502  -131.8684565211472 -432.1862622023 1442.334284749871  -203.279958471424 -696.0322405860018 994.182089015215  -252.9877724039122 -334.6460514912378 746.7879382329679  -276.7856666577224 -434.5123354942359 236.702383937649  -287.4489438422573 -56.52353927216821 -146.533157766454  -110.9648894089248 752.9236272307853 -1379.117081649841  -168.2858767293234 833.0043837212626 -1112.892764722156  -24.59179832063452 -1650.344879577957 -552.0477623064991  -9.832279453249155 1295.384349868476 -1135.798560040311  115.2885603379454 1541.734354643469 440.5677775204684  248.8814711575934 -455.5494315253378 734.8908032530633  14.43580599134085 -496.3742607442153 -1615.975290877985  45.71228329304452 -1710.37773653052 -259.8514127622013  -88.00498012015903 1119.944218789569 1192.364283334979  276.002251869667 441.4948059194326 -255.4068197830136  184.6376578710542 1271.738347555397 433.977706214966  217.768269741716 1152.789679380339 -19.28210980969457  -220.5681923977098 -1042.567535309285 -426.5629065929857  -95.80624801266876 1649.016990023148 131.336946303475  -160.6749349505202 1422.303138072736 308.6109677074955  -15.67293736259167 -1071.787726409808 -1332.257258332728  -67.31551794332101 -195.6131037317454 -1629.878847703521  -141.8977216760181 -314.0025763401429 -1438.113973762989  66.80878864948858 1703.8511730549 -86.19639681379097  7.830920693774992 -1742.072861483439 187.4876489381393  159.5596328529795 -1108.039239203362 917.908308027944  276.4892945197937 447.1455305191755 226.6856889935162  126.3535792276178 -469.6720929596368 1448.339060090003  -244.3014492913998 -935.068699087337 41.65461187306695  -51.73087625252428 -1156.710865039426 1231.642840394476  140.7688387672725 848.6476567929881 -1226.49613999097  -247.3909478327991 139.8368962246936 859.4547024250384  64.89041277184415 -1305.587546142592 -1060.837955789799  70.7774537566099 841.8525474139529 1421.201913632691  41.19709669127077 1696.133513611675 354.5801863740665  -179.7094151280341 1099.47242137005 -791.8790595864232  241.5473606715514 -845.6324460443199 -440.9035972299175  -4.420903506987912 455.9322348132252 1628.948648098018  218.7991654100778 -822.8924091024907 766.0904186532617  -280.3295015724603 418.2078744464518 -38.36940640058311  -149.4253614238492 -1501.364617326229 16.27436579124223  -91.27685216516841 -1638.473150957295 -279.5961508726738  259.0862298166611 775.096910881207 -11.73846030455842  -64.49503222676069 863.6949992632988 1419.26284598909  80.25156078130337 784.3415998954082 -1434.4194653086  -97.38839126665951 128.7983299243635 -1583.52818981703  -105.7036588016017 1534.293343905986 536.0414624655732  245.6503872334057 -786.5145919472405 463.937545662377  -19.69840043346441 -1740.629931723893 -169.4161850271371  -185.2347197741566 455.8977590954593 -1217.915149159942  -126.6102237358089 387.3458854768683 -1469.946585661749  -80.83589229636996 1410.628705753822 884.4311615318013  -203.189371314262 -1243.454732046928 -94.38078030547754  -0.001408247754874312 0.0002178567099135916 -0.002253429029764161  -92.08156170139195 -686.5697454243435 46.73177475952192  139.2021094780667 267.7770420158953 -7.715252275705952  -55.47202405668675 721.6045120435665 371.6668323401899  103.7752904439745 -511.5759074521972 338.1132447034873  -67.60407401564825 74.8676978837468 -751.1461554861696  -143.1642161925551 136.2922143298536 0.619923425568823  27.36311992282214 816.2092388076395 -322.7419335067617  96.71094317420508 -402.2480928591289 -505.386494599336  -75.22182613754364 -76.42396861529224 728.5380812599958  72.14625974997115 607.3107802297632 587.4674583641396  -26.64358973646928 -693.019769717101 -638.1635953189062  23.83783249719337 -1000.93885800094 3.119746167371595  57.43835095938564 265.797
[...]
<PointData  Vectors="Coriolis"> 
<DataArray  type="Float64"  Name="Coriolis"  NumberOfComponents="3" format="ascii">-8.2661450962855401e-15 1.0086397693092828e-14 0.0000000000000000e+00  8.3232461842235330e-14 1.4083194859153603e-14 0.0000000000000000e+00  1.1432423014544858e-13 8.3058564865964551e-13 0.0000000000000000e+00  1.4484987501114282e-13 1.8282426922945305e-12 0.0000000000000000e+00  9.4496784463899797e-15 2.9755276326955676e-12 0.0000000000000000e+00  -2.4424380965792102e-14 3.9759725907685024e-12 0.0000000000000000e+00  -5.5660714423167100e-14 4.3184077170926011e-12 0.0000000000000000e+00  -1.1565199349831612e-14 3.9858385182488635e-12 0.0000000000000000e+00  5.9210898590203954e-14 2.9970316648349519e-12 0.0000000000000000e+00  3.5433508531835469e-14 1.8134376761549395e-12 0.0000000000000000e+00  1.0499161708920395e-14 8.1828985860689693e-13 0.0000000000000000e+00  -9.7808345220883164e-12 9.5572321303524394e-13 0.0000000000000000e+00  7.6328555019845187e-12 1.0150556454601366e-12 0.0000000000000000e+00  -1.2774029439591610e-11 3.7034427563698596e-12 0.0000000000000000e+00  -1.1289654022754336e-11 2.0614616253760385e-12 0.0000000000000000e+00  1.1993803950473082e-11 3.1244058623115394e-12 0.0000000000000000e+00  1.1996100463554280e-11 3.1015017405740906e-12 0.0000000000000000e+00  8.9999027363633622e-12 1.1116693029676375e-12 0.0000000000000000e+00  -8.0379641602377218e-12 3.4318969366366509e-13 0.0000000000000000e+00  -1.0442327422253179e-11 2.1138506374710138e-12 0.0000000000000000e+00  -1.8654991965563690e-11 9.0683857013864064e-13 0.0000000000000000e+00  -2.0982043766324956e-11 1.7223781741293873e-12 0.0000000000000000e+00  -2.7444379186041730e-11 4.9027770752220761e-13 0.0000000000000000e+00  -2.8636067610140968e-11 1.1144169951559911e-12 0.0000000000000000e+00  -3.3068313124788025e-11 7.8918567377540555e-14 0.0000000000000000e+00  -3.1826732744669924e-11 5.9483480721778521e-13 0.0000000000000000e+00  -3.4516258480305323e-11 -1.0496429387500644e-13 0.0000000000000000e+00  -3.0627216431603144e-11 2.3769331759033299e-13 0.0000000000000000e+00  -3.1928033193992958e-11 -4.9519888290229981e-14 0.0000000000000000e+00  -2.5592568278413040e-11 1.9030671291399203e-13 0.0000000000000000e+00  -2.6594299773044264e-11 5.4625208106283617e-15 0.0000000000000000e+00  -2.6761183611965728e-11 1.4253205382862509e-12 0.0000000000000000e+00  1.0428122801488181e-11 2.1105747016580143e-12 0.0000000000000000e+00  2.0892520363925612e-11 1.6256555624659590e-12 0.0000000000000000e+00  2.2197720391951763e-11 2.3939471106282129e-12 0.0000000000000000e+00  -1.9086599582656757e-11 1.3189671099157895e-13 0.0000000000000000e+00  -1.7890132934628335e-11 7.6537939743208844e-13 0.0000000000000000e+00  1.7469271272785798e-11 9.3510530865761818e-13 0.0000000000000000e+00  2.6537293657210465e-11 4.7476559848593039e-13 0.0000000000000000e+00  -1.2397279433685540e-11 3.7289908952213788e-12 0.0000000000000000e+00  -2.4221279930108845e-11 2.3672887342843986e-12 0.0000000000000000e+00  -1.2028354309073563e-11 3.1515805298842847e-12 0.0000000000000000e+00  8.1295703418761488e-12 3.5347866428639171e-13 0.0000000000000000e+00  1.0103908789860490e-11 2.0541885447066404e-12 0.0000000000000000e+00  2.0663367954648403e-11 1.6142927950966333e-12 0.0000000000000000e+00  -3.0991723845669037e-11 -1.3931511352533565e-14 0.0000000000000000e+00  -3.2312919609712078e-11 5.7510158046260895e-14 0.0000000000000000e+00  -1.7204932663594586e-11 3.1253124598197971e-13 0.0000000000000000e+00  2.2411592215767237e-11 2.3811170487834711e-12 0.0000000000000000e+00  2.9071123775899222e-11 8.0642769363216817e-13 0.0000000000000000e+00  2.5528972701961752e-11 4.8436992543472364e-13 0.0000000000000000e+00  3.2095959359454500e-11 1.2628112425322607e-14 0.0000000000000000e+00  2.8106451550352126e-11 5.3889715677212442e-14 0.0000000000000000e+00  3.3350828394542837e-11 -4.8851861131271624e-14 0.0000000000000000e+00  2.9157852113787049e-11 -5.6046785272088047e-15 0.0000000000000000e+00  3.3719286878185160e-11 8.9999052957029543e-14 0.0000000000000000e+00  2.9809202397574897e-11 -2.9688111534947240e-13 0.0000000000000000e+00  3.5188717950024074e-11 3.6933479625035294e-14 0.0000000000000000e+00  -2.6841860940364520e-11 -1.8491801437431803e-13 0.0000000000000000e+00  -3.1964106746047465e-11 -1.1011911874389700e-13 0.0000000000000000e+00  3.2658376963971160e-11 -3.1410153985516099e-13 0.0000000000000000e+00  2.7220738909268353e-11 -1.3361491663169141e-12 0.0000000000000000e+00  2.8045087231519353e-11 -1.5245436231848313e-12 0.0000000000000000e+00  1.9659723473166793e-11 -2.9440416649145501e-12 0.0000000000000000e+00  1.8776219999810577e-11 -3.0758737419168214e-12 0.0000000000000000e+00  1.7303826707538918e-11 -2.3805318070805852e-12 0.0000000000000000e+00  2.5177472182098275e-11 -1.5755130612535499e-12 0.0000000000000000e+00  8.3290153205707771e-12 -3.8012143749483899e-12 0.0000000000000000e+00  1.4644991592361591e-11 -2.7746174989349669e-12 0.0000000000000000e+00  4.8493199965024435e-12 -2.8738176568353519e-12 0.0000000000000000e+00  -5.7969661690804301e-12 -3.5105842654399964e-12 0.0000000000000000e+00  1.9266109031468394e-11 -1.3693364980373485e-12 0.0000000000000000e+00  -1.2626750448093235e-11 -2.6959743406064432e-13 0.0000000000000000e+00  -2.5738493123188217e-11 -9.9409293836548834e-13 0.0000000000000000e+00  -6.8977466565208415e-12 -2.4056599674133382e-12 0.0000000000000000e+00  -1.7287762812933654e-11 -2.3102274743339981e-12 0.0000000000000000e+00  5.3464884961052210e-12 -4.0036605538342518e-12 0.0000000000000000e+00  2.2647099376579053e-11 -3.9402678674010122e-13 0.0000000000000000e+00  8.3175269256382392e-12 -2.1602654513719463e-12 0.0000000000000000e+00  2.2091117581526165e-11 2.2958954515317966e-13 0.0000000000000000e+00  -1.5816202924563337e-11 -3.4004401809145846e-12 0.0000000000000000e+00  2.5914780106267875e-12 -1.7677883294902737e-12 0.0000000000000000e+00  1.3246880282526806e-11 -1.0867114498979702e-12 0.0000000000000000e+00  -1.6107626397496476e-11 -1.2979018384140077e-12 0.0000000000000000e+00  -2.5424182462998914e-11 -9.3854647661253495e-13 0.0000000000000000e+00  2.7708207908564696e-11 -5.1491668046715281e-13 0.0000000000000000e+00  -3.4857830937042312e-11 1.2760076581134858e-13 0.0000000000000000e+00  2.1878792034858600e-12 -1.3478370481337678e-12 0.0000000000000000e+00  -3.5688820731250914e-12 -2.3933741478782097e-12 0.0000000000000000e+00  -2.2489095726730884e-11 -4.0890297201016401e-13 0.0000000000000000e+00  -3.0152528311215344e-11 -7.5167684381113051e-14 0.0000000000000000e+00  -1.3279636494408565e-11 -5.8667584777660577e-13 0.0000000000000000e+00  3.3241355559855633e-11 1.9913102711212481e-13 0.0000000000000000e+00  -2.9373588462954663e-11 -1.1003333346485175e-12 0.0000000000000000e+00  -2.0943481449825516e-11 -2.3834791554361270e-12 0.0000000000000000e+00  2.9852002228727864e-11 2.5236868863942143e-14 0.0000000000000000e+00  2.5840170580762509e-11 -2.7214220827049598e-14 0.0000000000000000e+00  1.8519524471695774e-11 -3.9656380188703821e-14 0.0000000000000000e+00  7.8536723394799632e-12 -6.7741552312237008e-13 0.0000000000000000e+00  -1.8937812430994954e-11 -8.8523909533263517e-13 0.0000000000000000e+00  2.1665913649525569e-11 2.7066267740406677e-13 0.0000000000000000e+00  -3.1424990747139564e-11 -5.0254647560230573e-13 0.0000000000000000e+00  1.5512580933273308e-11 -1.1498420535409810e-13 0.0000000000000000e+00  6.5037255375353410e-12 -3.7100355684533807e-13 0.0000000000000000e+00  3.2431446423179823e-11 5.3613685234190037e-14 0.0000000000000000e+00  -4.7895394641842519e-12 -5.2082406132465927e-13 0.0000000000000000e+00  -2.7340331469076141e-11 -1.2804903900151787e-14 0.0000000000000000e+00  -8.1400933626776377e-12 -1.2051446285205270e-12 0.0000000000000000e+00  -1.5691730728565581e-11 -1.9902722902664646e-12 0.0000000000000000e+00  -8.5010886163792518e-12 -3.3165219992036650e-12 0.0000000000000000e+00  -1.1800179341931980e-11 -3.8243542740375374e-12 0.0000000000000000e+00  -1.5990118884598946e-12 -4.3179371822396471e-12 0.0000000000000000e+00  1.4224578508098215e-11 -8.0439636024168748e-13 0.0000000000000000e+00  1.7514201615480241e-11 -1.3531922937155223e-12 0.0000000000000000e+00  -3.2644017446172888e-11 4.1259578468387033e-14 0.0000000000000000e+00  2.4025189733158283e-11 -3.1818192221326464e-14 0.0000000000000000e+00  3.2405930329494922e-11 5.8937307453781253e-14 0.0000000000000000e+00  -1.1485555459254020e-11 3.0671982317628985e-12 0.0000000000000000e+00  -8.2907947921844078e-12 1.0831906418420912e-13 0.0000000000000000e+00  -3.4652412581534273e-11 -9.7969115393223419e-14 0.0000000000000000e+00  2.1343966689641572e-11 -3.7522596500807377e-13 0.0000000000000000e+00  1.1905537694678673e-11 3.7707234588874703e-12 0.0000000000000000e+00  2.9146573877759550e-11 8.8891788256338409e-13 0.0000000000000000e+00  2.8181906844808938e-11 1.5042374910394974e-12 0.0000000000000000e+00  -2.5314778362365159e-11 -1.7566843494040055e-12 0.0000000000000000e+00  3.4414752970099338e-11 1.0839272743561031e-13 0.0000000000000000e+00  3.1672471357934412e-11 -4.0529338810371701e-13 0.0000000000000000e+00  -1.9250936327574675e-11 -7.9221597443024801e-14 0.0000000000000000e+00  -3.3870389244131039e-12 -5.8220778338583379e-13 0.0000000000000000e+00  -6.0198691030605377e-12 -1.3738743265241753e-12 0.0000000000000000e+00  3.4929212251551705e-11 -1.3036735434957452e-13 0.0000000000000000e+00  -3.5023659703080597e-11 -3.5133046453808466e-14 0.0000000000000000e+00  -2.3678898406528274e-11 9.4516463093672920e-13 0.0000000000000000e+00  1.2083225607759390e-11 3.7889574185665121e-12 0.0000000000000000e+00  -8.8022640249503146e-12 1.1026493276138449e-12 0.0000000000000000e+00  -2.4025782444246536e-11 -2.4040940269426002e-12 0.0000000000000000e+00  -2.1476552525332571e-11 -2.1356224921643720e-13 0.0000000000000000e+00  1.6901452817882148e-11 1.0113818853088845e-12 0.0000000000000000e+00  3.5286572661303039e-12 -3.2795553003736335e-12 0.0000000000000000e+00  -2.4883989182005954e-11 1.6140532783066579e-13 0.0000000000000000e+00  1.5283401776461258e-11 4.2472366457369795e-13 0.0000000000000000e+00  3.4012155931390575e-11 -7.6897575670142874e-14 0.0000000000000000e+00  2.4409614139882164e-11 -1.1041703188701156e-12 0.0000000000000000e+00  -2.1303426170671142e-11 2.4851325814659507e-12 0.0000000000000000e+00  7.9038623352171757e-12 -3.5008852991027791e-14 0.0000000000000000e+00  -1.9543086236288833e-11 2.0768533404814504e-12 0.0000000000000000e+00  1.1437169663182138e-11 -3.8791113552622884e-12 0.0000000000000000e+00  -3.3244047742699225e-11 -2.2432649725533166e-13 0.0000000000000000e+00  -3.4044909743638495e-11 9.5578533388656004e-14 0.0000000000000000e+00  2.0306867129206584e-11 2.9341905690844364e-12 0.0000000000000000e+00  1.5633604264912509e-11 -3.8950037006608527e-13 0.0000000000000000e+00  1.4198746328712895e-11 5.2542098402517425e-13 0.0000000000000000e+00  2.4538592681678236e-12 -8.6809139315676568e-13 0.0000000000000000e+00  3.1778807565229905e-11 -5.6590747844655099e-14 0.0000000000000000e+00  -1.9971754439812744e-11 2.6370958046769242e-12 0.0000000000000000e+00  -3.5069430837010822e-11 4.3416417246260451e-14 0.0000000000000000e+00  9.7097020449677309e-12 -1.8797608906916269e-12 0.0000000000000000e+00  7.3020745384654724e-12 -1.1409398232441790e-12 0.0000000000000000e+00  2.7843398778604739e-11 -1.4416701032813675e-13 0.0000000000000000e+00  -2.9668272270063830e-11 -1.1385843326645502e-12 0.0000000000000000e+00  2.0140269347832611e-15 1.3910577165171071e-14 0.0000000000000000e+00  -1.8553586307055905e-11 -1.1262975244097664e-12 0.0000000000000000e+00  7.5203208178083468e-12 2.0641848057434952e-12 0.0000000000000000e+00  1.8999244705798681e-11 -6.5081393875582363e-13 0.0000000000000000e+00  -1.3865783856796475e-11 1.3684973271545536e-12 0.0000000000000000e+00  1.8856308271547271e-12 -9.3663176320318069e-13 0.0000000000000000e+00  3.8721290645837748e-12 -2.1879343970257785e-12 0.0000000000000000e+00  2.1282528961758480e-11 3.0419202615036412e-13 0.0000000000000000e+00  -1.0803823811685810e-11 1.3102933343983568e-12 0.0000000000000000e+00  -1.9930734550126706e-12 -1.0700347772841928e-12 0.0000000000000000e+00  1.5732868978569158e-11 8.8863334831422402e-13 0.0000000000000000e+00  -1.7591008688185326e-11 -3.0740509494926486e-13 0.0000000000000000e+00  -2.5749004135374216e-11 2.1585587327923092e-13 0.0000000000000000e+00  6.6923557671633284e-12 7.5564367696459434e-13 0.0000000000000000e+00  -1.9525626877822663e-11 -2.5330952044909525e-13 0.0000000000000000e+00  -2.3199817531551724e-12 6.7938337787000382e-13 0.0000000000000000e+00  2.0006149608575185e-11 -1.1312377221058708e-12 0.0000000000000000e+00  -9.7607144172874036e-12 -1.9816551010261021e-12 0.0000000000000000e+00  1.2729115036044970e-12 2.0944163258475226e-12 0.0000000000000000e+00  1.1357978072396876e-11 -2.2501178398266950e-13 0.0000000000000000e+00  2.6813235227796363e-11 2.3847852704341734e-13 0.0000000000000000e+00  1.6458401564132349e-11 1.4993681968121514e-12 0.0000000000000000e+00  2.3154104103490417e-11 1.2828376152849465e-12 0.0000000000000000e+00  1.0649996523064480e-11 -1.9153271796281459e-12 0.0000000000000000e+00  -9.3037770129673216e-12 2.5019252397236571e-12 0.0000000000000000e+00  1.6937280694457175e-11 -3.6339682130862865e-13 0.0000000000000000e+00  -1.0064225983595332e-11 -2.3445008358399742e-12 0.0000000000000000e+00  1.7005766604237239e-12 2.3681384779551799e-12 0.0000000000000000e+00  -2.2813402703660891e-11 1.2949618306088918e-12 0.0000000000000000e+00  8.5740815587634679e-12 -2.1569818152183221e-12 0.0000000000000000e+00  -8.1389814848349543e-12 4.4086801238277293e-13 0.0000000000000000e+00  -2.7204672449602450e-11 -4.3377470301177755e-13 0.0000000000000000e+00  -2.8291488334504766e-11 -3.7703939894595620e-13 0.0000000000000000e+00  -2.4945554583159366e-11 5.3296538317611425e-13 0.0000000000000000e+00  2.2665909177982744e-11 -1.4908763668260786e-12 0.0000000000000000e+00  -2.4365928659342607e-11 4.6696908966827157e-13 0.0000000000000000e+00  2.8809794604802885e-11 -2.5617314685968136e-13 0.0000000000000000e+00  -1.0679133991433810e-11 -1.1344903744354609e-12 0.0000000000000000e+00  1.5065027292968204e-11 2.1124918127087680e-12 0.0000000000000000e+00  1.4459722953838621e-11 2.7392482418255983e-13 0.0000000000000000e+00  7.9212619419650664e-12 8.8392481460871278e-13 0.0000000000000000e+00  </DataArray> 
</PointData> 
</Piece>
</UnstructuredGrid>
</VTKFile>