<?xml version="1.0"?>
<VTKFile type="UnstructuredGrid"  version="0.1"  >
<UnstructuredGrid>
<Piece  NumberOfPoints="201" NumberOfCells="657">
<Points>
<DataArray  type="Float64"  NumberOfComponents="3"  format="ascii">-0.0203617790205825 -0.01588131663175804 4545.055910133178  -0.02841765958918436 0.1731770800610778 -4545.056497785989  240.7966967847526 0.2372639291406457 -4322.090757941261  457.5179991344192 0.2998036820079885 -3675.426142273177  628.7874384589948 0.01912459526736036 -2669.313556142202  738.2143629077142 -0.05284319800021681 -1402.888824311057  775.9262803011001 -0.1178548800013872 -0.02072077256215048  738.1938332306667 -0.02335390805295885 1402.904608427267  628.7430004162537 0.1235069104127517 2669.178373429948  457.5473051992527 0.07383963414117692 3675.34425359576  240.8211737867479 0.02241458195706354 4322.069589548661  305.2660844800064 -1452.202311158567 -3951.937453887889  303.1432570041904 1128.102487534439 4049.5669134529  739.4004943447892 -1301.126532632868 -673.1636619809655  533.5881349590115 -1414.337328271421 3029.654903619848  673.0171959171413 1314.076005934707 1909.701419689514  670.2400453097463 1314.067331686981 -1943.092514320645  340.7763571006483 1300.337836118367 -3899.601931129806  117.5041673133989 -1298.356467384898 4323.474019495979  529.9950573500786 -1303.312744526719 -3093.528423780896  370.0750114380465 -2553.319072021482 -3200.270379490209  549.1031968580181 -2508.205393009194 -2203.27740381043  377.9281663916316 -3580.09817776708 -2119.041225814222  531.6402966664607 -3365.83792963981 -1043.055632135384  334.8609656880826 -4263.054699271713 -887.1771145706061  475.8158002207283 -3830.309835865186 224.2438063769032  250.7844052704538 -4552.904527680929 405.0515744889869  362.9575467532665 -3956.827241878142 1535.416096485788  131.0232489952048 -4428.944280061271 1634.034754270188  232.1944714615944 -3611.810098854427 2696.988283574813  -9.049404473410467 -3877.821386028511 2703.230403014457  554.4516645336514 -3114.030711228407 1294.115990688109  530.0014909551664 1303.283227673817 3093.573666870236  538.0761786915273 2524.283082036623 2278.949515581949  650.7654842312735 2423.376273308498 1031.036631190036  86.73136613934717 -2880.021105237553 3612.033022288135  317.0271228392171 -2527.911003180458 3404.278392327119  369.9782578141556 2407.456609870567 3298.970108810162  357.3847703699262 3523.788253215142 2312.994217547347  740.7779583355789 -1269.283413954542 673.0384643284016  655.0205833983788 -2620.022530113378 77.98012202361598  674.4665166259218 -1315.298819386529 -1891.033815547294  117.4837616505711 1298.545281385384 -4323.620737109546  524.7983742205776 1270.460947082353 -3135.979715713611  533.9553796080849 2510.457842735505 -2324.726899986936  162.6098295633384 -4296.843255499992 -1840.06511267843  -113.8641737865032 -4481.559775454814 1547.049174725709  158.0297596060352 -2614.895656358754 -3707.91371111732  646.3115827250512 2452.164638288884 -1065.577392565418  485.3087605852405 3535.59770447755 -1284.366625847555  344.7683291542696 3435.3082253792 -2488.306065153073  272.9581233670826 4278.764059597349 -1386.299403217697  120.4895596738495 4013.658189608664 -2423.272301700783  35.40495484970159 4629.357931850599 -1258.735781321524  -123.6175927478248 4130.086967205038 -2237.209582029871  -204.185790308009 4548.535799856606 -949.175150845418  -358.9172220840474 3886.791652841608 -1713.94326256987  -39.31253003070021 4815.987961536767 84.04191025750022  -250.2603405305219 -3730.465347595901 2491.941244642172  -345.985109115149 -4130.052326408653 1234.116537633092  -421.4928869098283 4042.586844696969 -463.2508804999831  -554.8851329978174 3165.739503453891 -1174.059595328285  -590.8603855168337 3160.534680379471 105.0292363671163  -690.7286452362065 2087.695636494371 -732.97123910083  -700.0097701681664 1981.874436551361 683.8471736216418  -614.1044228918109 1976.024372086417 -2087.610440503245  -567.9625029692689 2923.04049522805 1473.294081569004  -729.3328234279444 865.8328886806379 -1330.292537350828  -646.8009824726261 1627.599503197271 2009.31072824379  -621.5523538824116 554.8034829271157 -2677.518357707776  -697.3902743111991 -628.312997723274 -1910.757967462982  -482.5902578129809 2447.60454605222 2730.114654666327  -107.8429217144327 -1994.30426023016 4090.861882539922  -470.777811379768 -3196.096106483968 2030.870295616499  -558.8881306941223 -849.1745750601981 -3057.085229505839  -604.4099109364108 -1995.325515950534 -2166.692768002359  -745.8377298104234 549.6120101147225 1147.877980819128  -261.5340951261463 3214.817678514641 -3030.952086739983  -532.4478710738515 1045.364670963173 3164.25988485494  168.3013336941351 3246.810907170683 3217.36590895807  -719.568001586302 -1637.975527370625 -769.8136168733844  -453.1716709811274 338.8318513811701 -3680.421432187009  -353.656807984465 1859.486695810751 3652.734553772426  -436.2938005854456 -2141.371171311722 -3183.106210105942  -457.7093511042264 -3191.253147817105 -2135.931208277405  -386.3085286725041 3591.67872106632 2049.71910212832  -198.0516275239528 -4658.557199557215 293.3096061889246  -372.0344993212382 313.0055590046079 3981.165831206502  -548.9018161413687 -453.046055320438 3189.779271049831  -264.460433652577 -3194.215397466395 -3041.530286384644  -266.0298690675775 -4075.085387681815 -1885.571670261323  -227.4013189671221 -2020.759627992835 -3909.289648909799  397.4958674312635 4160.733512654934 -128.5362067473134  -532.8567513197754 -3431.78025561698 806.6535708049186  -639.431795813406 -2320.02520043435 1409.693939165385  140.48759207614 4183.050926753182 2113.448184095241  -50.67482643532431 3770.488936000051 2820.349777454731  -17.49255164868875 2839.212605179104 3673.861054567493  -211.192695674372 1199.654334400811 4226.494018846553  -352.7119687668306 -2609.472925043623 3226.219953214842  184.4866982768091 3174.350561604277 -3251.547009671024  -438.8416643340639 -3859.703013789435 -993.7591843947499  -57.87514421891309 2432.953880036451 -3910.773175508561  -128.0085025632045 1042.882740881595 -4374.506766688068  -87.43160104051306 4503.883699033371 1546.844154997092  -164.7313791043263 -738.5299235686587 4387.347997579389  -56.68273596534029 -3948.897423792404 -2590.2855109559  -355.7746639954139 -1187.763603925609 3885.282661503714  -548.2155838277333 -1917.475267579234 2678.088700565194  -680.785829576129 -923.631760084873 2010.242223275862  -744.4869511277719 -1200.627175405541 637.1485729988408  -772.5522213890197 -156.3014010586993 -394.3200082782384  -299.7499047974447 2069.28586526835 -3716.657131264073  -454.3612489632114 2292.536698537072 -2998.977389311912  -66.82206605178115 -4538.05381114471 -1491.095955950709  -26.62979857414027 3559.241508636595 -3064.692277858521  312.8191954672879 4242.831855186189 1189.405174260582  670.082991958598 -1257.164883711906 1978.498699194407  38.98869365636995 -1362.278910564925 -4354.269288515171  124.2484466132204 -4704.567334712931 -701.9737472077597  -238.1963382463686 3078.250573217362 3215.672445104575  742.4551117960589 1219.769870108114 -687.449427706774  499.5806977273534 3504.186434274933 1170.442719899611  588.419092142007 3179.607773788249 -51.95297445061271  -595.5666007545345 -2875.307567393294 -1149.608496761233  -260.2354491749537 4537.596103261329 354.6984479867567  -435.3964296167181 3917.359854026955 832.7401828688199  -42.39867869647043 -2943.805582364387 -3592.898646759071  -181.6704592613154 -537.0686346555583 -4390.590392496911  -382.6955123601571 -863.1540426011562 -3873.435732797486  181.5689638394657 4687.342398733732 -232.9225271676442  21.31644911824684 -4791.254534083083 506.5239583150891  431.4031802199528 -3050.103283664212 2474.840147842766  743.7446654991024 1235.425816598797 610.1447824453473  340.9874844752333 -1290.704089106855 3901.696693949466  -658.8403484383142 -2581.221202269414 112.2043415194072  -140.0285028286125 -3178.292073219031 3322.001247535563  380.27939475904 2333.905341856429 -3305.583742962785  -665.6569232574698 385.9127061687419 2313.3853678918  175.8385937466904 -3588.467911394235 -2862.334789434834  191.3484573448225 2312.577157582427 3830.963750464715  111.9564701677489 4664.76565369012 957.8322339252973  -485.8149811491008 3028.149714779778 -2134.921998049894  651.2155567052439 -2333.589180518049 -1187.695389628494  -11.93696845223254 1251.803204704469 4388.97258260027  590.1888869811501 -2268.715492329138 2063.800046867289  -754.0083035728084 1155.719153866861 -103.2770515451467  -405.1852634358449 -4134.753493583735 43.91512430391255  -247.9200635795272 -4508.321789380645 -755.1026680339119  698.0284486881101 2140.348676434972 -31.62071779132693  -174.3587473968704 2372.494234580909 3825.910864146631  216.8841584505488 2154.52510641444 -3866.216375747697  -262.7859664588153 354.025694470577 -4265.428989712134  -286.8057550163409 4221.519007784954 1447.151959255581  662.0823904797734 -2170.738441505351 1249.50431620779  -53.54453705535718 -4787.420014269667 -457.7009653048518  -499.4268045225667 1254.934008436329 -3280.190995326349  -341.6157676412492 1064.543032019859 -3959.71261055249  -219.1505497498727 3878.853458388485 2386.91744917582  -549.4950164729086 -3428.349198163957 -254.55567415068  -0.02884579837805585 0.002556349773339979 -0.04539388251913383  -247.9383082616792 -1896.901426088193 125.846412170335  374.1710449712374 740.3563341335239 -20.8285334652372  -149.4119737655182 1992.799749901687 1000.845686160876  279.2470117015467 -1413.503331513859 910.1673556554961  -181.8324012329587 206.6057758490714 -2021.741248962434  -384.70531677816 376.9055595114471 1.64303951487818  73.73203965288461 2253.677613153895 -869.2872459503426  260.1747031643379 -1111.253977868826 -1360.473558005371  -202.272602485575 -211.02380889017 1960.877027210822  194.2477912720025 1676.71294963446 1581.82856124692  -71.77278074954475 -1912.688956746682 -1718.660477692859  64.31934579320652 -2763.084282315095 8.385784997462137  154.5610278748369 733.4989583103056 -2251.3197
[...]
<PointData  Vectors="Coriolis"> 
<DataArray  type="Float64"  Name="Coriolis"  NumberOfComponents="3" format="ascii">-1.4330123965519938e-13 1.9856635219924855e-13 0.0000000000000000e+00  1.7600541136797858e-12 2.7700069450547240e-13 0.0000000000000000e+00  2.4031184752539217e-12 1.7238383082124288e-11 0.0000000000000000e+00  3.0253668585600893e-12 3.7751626663699416e-11 0.0000000000000000e+00  1.8685779026617478e-13 6.1118964271819667e-11 0.0000000000000000e+00  -5.6493187175574389e-13 8.1366606021089181e-11 0.0000000000000000e+00  -1.2257798823886773e-12 8.8266719443783829e-11 0.0000000000000000e+00  -2.2791902865644370e-13 8.1575190202239243e-11 0.0000000000000000e+00  1.2593227567770602e-12 6.1566393695672821e-11 0.0000000000000000e+00  7.5206713761263703e-13 3.7473961149132625e-11 0.0000000000000000e+00  2.3571271127355955e-13 1.7004514824969279e-11 0.0000000000000000e+00  -2.0639990258606513e-10 1.9851825285566553e-11 0.0000000000000000e+00  1.6113961803253311e-10 2.1063238379617063e-11 0.0000000000000000e+00  -2.6817042189716404e-10 7.5665632980857478e-11 0.0000000000000000e+00  -2.3751138705018070e-10 4.2444984586505575e-11 0.0000000000000000e+00  2.5191640848738535e-10 6.4008843528541727e-11 0.0000000000000000e+00  2.5199724958713106e-10 6.3525172527632512e-11 0.0000000000000000e+00  1.8984605154535046e-10 2.3046250066233761e-11 0.0000000000000000e+00  -1.6998202558432591e-10 7.1495975536340447e-12 0.0000000000000000e+00  -2.1972195133078551e-10 4.3523777196285188e-11 0.0000000000000000e+00  -3.9187775894494136e-10 1.8801678215936602e-11 0.0000000000000000e+00  -4.3992448625645280e-10 3.5364892323873846e-11 0.0000000000000000e+00  -5.7395199592138652e-10 1.0170328103989225e-11 0.0000000000000000e+00  -5.9854267343502020e-10 2.2791463010616079e-11 0.0000000000000000e+00  -6.8956730382656905e-10 1.6605447248183446e-12 0.0000000000000000e+00  -6.6423536116210644e-10 1.2142196539213666e-11 0.0000000000000000e+00  -7.1913598292521923e-10 -2.1129873945639301e-12 0.0000000000000000e+00  -6.3947350423103694e-10 4.9530435485813365e-12 0.0000000000000000e+00  -6.6610999092073747e-10 -9.5203353857467559e-13 0.0000000000000000e+00  -5.3589917867614132e-10 4.0322209372282801e-12 0.0000000000000000e+00  -5.5661487001967086e-10 1.1609954791644533e-13 0.0000000000000000e+00  -5.5984159406259268e-10 2.9177991313037533e-11 0.0000000000000000e+00  2.1942237160893949e-10 4.3469411382765151e-11 0.0000000000000000e+00  4.3807909685542821e-10 3.3394302672904968e-11 0.0000000000000000e+00  4.6508691200852965e-10 4.8890108466551601e-11 0.0000000000000000e+00  -4.0134962887783326e-10 2.7789437836668091e-12 0.0000000000000000e+00  -3.7606906788144468e-10 1.5904623568175400e-11 0.0000000000000000e+00  3.6717966797603307e-10 1.9376146238787462e-11 0.0000000000000000e+00  5.5521412651803014e-10 9.8509190050009151e-12 0.0000000000000000e+00  -2.6026865107956051e-10 7.6193613646905202e-11 0.0000000000000000e+00  -5.0713276896392694e-10 4.8321498186602136e-11 0.0000000000000000e+00  -2.5266867537035229e-10 6.4549774874448606e-11 0.0000000000000000e+00  1.7187680390704979e-10 7.3482105105811007e-12 0.0000000000000000e+00  2.1263451480097776e-10 4.2313974821266601e-11 0.0000000000000000e+00  4.3328727353316291e-10 3.3177760772656119e-11 0.0000000000000000e+00  -6.4693899693646633e-10 -2.0640175482842962e-13 0.0000000000000000e+00  -6.7399404558223723e-10 1.1480323839067838e-12 0.0000000000000000e+00  -3.6209960325266447e-10 6.5385596749487315e-12 0.0000000000000000e+00  4.6956433778582700e-10 4.8625803152261324e-11 0.0000000000000000e+00  6.0744093144968482e-10 1.6518840352731676e-11 0.0000000000000000e+00  5.3441761415845149e-10 1.0061136233007024e-11 0.0000000000000000e+00  6.6952043569724890e-10 3.1771287074880188e-13 0.0000000000000000e+00  5.8763221162476159e-10 1.1572783263705233e-12 0.0000000000000000e+00  6.9517982449244220e-10 -9.9022779499162804e-13 0.0000000000000000e+00  6.0922745103537565e-10 -1.8179926755669667e-13 0.0000000000000000e+00  7.0275507357111874e-10 1.7833139069708276e-12 0.0000000000000000e+00  6.2261934712416419e-10 -6.1683344640820621e-12 0.0000000000000000e+00  7.3274421520457051e-10 7.4221681383020964e-13 0.0000000000000000e+00  -5.6163672304551358e-10 -3.8997483609029280e-12 0.0000000000000000e+00  -6.6692160275363122e-10 -2.3009146092021068e-12 0.0000000000000000e+00  6.8120429166073172e-10 -6.4261020150363932e-12 0.0000000000000000e+00  5.6928632406277187e-10 -2.7324855867896818e-11 0.0000000000000000e+00  5.8636885016439755e-10 -3.1065550120060218e-11 0.0000000000000000e+00  4.1220904622278093e-10 -6.0131739487074866e-11 0.0000000000000000e+00  3.9374906369415647e-10 -6.2805449288856941e-11 0.0000000000000000e+00  3.6312025904436357e-10 -4.8808445653507436e-11 0.0000000000000000e+00  5.2698509809562338e-10 -3.2252471067026002e-11 0.0000000000000000e+00  1.7500119506617012e-10 -7.7771673947978860e-11 0.0000000000000000e+00  3.0755245944425983e-10 -5.6854974952823536e-11 0.0000000000000000e+00  1.0199811297747445e-10 -5.9040981979984357e-11 0.0000000000000000e+00  -1.2180574346563932e-10 -7.1913030015147853e-11 0.0000000000000000e+00  4.0437076305533123e-10 -2.8229447608638839e-11 0.0000000000000000e+00  -2.6645616638154998e-10 -5.6208113404157593e-12 0.0000000000000000e+00  -5.3868587256873922e-10 -2.0442871402647388e-11 0.0000000000000000e+00  -1.4516269691303560e-10 -4.9505242034418764e-11 0.0000000000000000e+00  -3.6284141830527854e-10 -4.7372085535172249e-11 0.0000000000000000e+00  1.1228562326378262e-10 -8.1897349224019778e-11 0.0000000000000000e+00  4.7490812784434996e-10 -8.2439685545858381e-12 0.0000000000000000e+00  1.7507043508939981e-10 -4.4509506835015857e-11 0.0000000000000000e+00  4.6352303037638168e-10 4.8107098782935748e-12 0.0000000000000000e+00  -3.3187468439558114e-10 -6.9456719663302948e-11 0.0000000000000000e+00  5.4642583431828666e-11 -3.6526616866922725e-11 0.0000000000000000e+00  2.7900384142461591e-10 -2.2519750005705560e-11 0.0000000000000000e+00  -3.3861466101205368e-10 -2.6829510914885979e-11 0.0000000000000000e+00  -5.3217967083419096e-10 -1.9325899634612369e-11 0.0000000000000000e+00  5.7939485956381561e-10 -1.0655711354561387e-11 0.0000000000000000e+00  -7.2609659023389340e-10 2.5945526109429722e-12 0.0000000000000000e+00  4.6221047382011077e-11 -2.7918273186562729e-11 0.0000000000000000e+00  -7.5189179766664918e-11 -4.9284504455510785e-11 0.0000000000000000e+00  -4.7169612225297717e-10 -8.5475143454932360e-12 0.0000000000000000e+00  -6.2972911964243853e-10 -1.6323917435892825e-12 0.0000000000000000e+00  -2.8001151605806272e-10 -1.2225125588262263e-11 0.0000000000000000e+00  6.9313066514277595e-10 4.0719460005148205e-12 0.0000000000000000e+00  -6.1384022360094041e-10 -2.2463612056885389e-11 0.0000000000000000e+00  -4.3894198214476158e-10 -4.8754258101663459e-11 0.0000000000000000e+00  6.2353930636602571e-10 5.7752206008783685e-13 0.0000000000000000e+00  5.4100545690056109e-10 -5.9497478556163065e-13 0.0000000000000000e+00  3.8953292909833392e-10 -8.3390080479789874e-13 0.0000000000000000e+00  1.6589651500137964e-10 -1.4075727213413658e-11 0.0000000000000000e+00  -3.9782465325640313e-10 -1.8349717489949609e-11 0.0000000000000000e+00  4.5468762473514796e-10 5.6749831118305705e-12 0.0000000000000000e+00  -6.5597895876489275e-10 -1.0288111088742543e-11 0.0000000000000000e+00  3.2685723412109230e-10 -2.4203277831426969e-12 0.0000000000000000e+00  1.3757859774404546e-10 -7.7375157170929485e-12 0.0000000000000000e+00  6.7639834719434414e-10 1.0551782365935750e-12 0.0000000000000000e+00  -1.0128133428948174e-10 -1.0836772895989983e-11 0.0000000000000000e+00  -5.7197616740280676e-10 -2.9238303147443776e-13 0.0000000000000000e+00  -1.7179164227274522e-10 -2.4963628413039075e-11 0.0000000000000000e+00  -3.2961515164008724e-10 -4.0928151778041018e-11 0.0000000000000000e+00  -1.7868405838315818e-10 -6.7947349560366123e-11 0.0000000000000000e+00  -2.4778314293932197e-10 -7.8132742619088607e-11 0.0000000000000000e+00  -3.3638218130191648e-11 -8.8254479265854440e-11 0.0000000000000000e+00  2.9954118518978660e-10 -1.6720958691010187e-11 0.0000000000000000e+00  3.6788674886263768e-10 -2.7932881268766190e-11 0.0000000000000000e+00  -6.8078622759131627e-10 8.2746373057454940e-13 0.0000000000000000e+00  5.0358397079307878e-10 -6.7471160988108386e-13 0.0000000000000000e+00  6.7593540459815240e-10 1.2641233542372046e-12 0.0000000000000000e+00  -2.4125371292621149e-10 6.2842333201252742e-11 0.0000000000000000e+00  -1.7540870556713068e-10 2.2552146729582803e-12 0.0000000000000000e+00  -7.2186464228640902e-10 -1.9716901640108968e-12 0.0000000000000000e+00  4.4795556729046380e-10 -7.8503756286216102e-12 0.0000000000000000e+00  2.5001084965023243e-10 7.7051543838155594e-11 0.0000000000000000e+00  6.0903471406676721e-10 1.8185427840116319e-11 0.0000000000000000e+00  5.8919408569844723e-10 3.0648772291967861e-11 0.0000000000000000e+00  -5.2978091137151346e-10 -3.5901430380727330e-11 0.0000000000000000e+00  7.1703638715373788e-10 2.1654617961341195e-12 0.0000000000000000e+00  6.6095820762726503e-10 -8.3145037485415193e-12 0.0000000000000000e+00  -4.0475337243892440e-10 -1.6585552581171704e-12 0.0000000000000000e+00  -7.1661668723175958e-11 -1.2117195230836446e-11 0.0000000000000000e+00  -1.2704761928756667e-10 -2.8454854202191828e-11 0.0000000000000000e+00  7.2748814462201335e-10 -2.6418312141935107e-12 0.0000000000000000e+00  -7.2941636007803463e-10 -6.9674145568076650e-13 0.0000000000000000e+00  -4.9615113163606064e-10 1.9522465402238372e-11 0.0000000000000000e+00  2.5370667201045643e-10 7.7425242115304859e-11 0.0000000000000000e+00  -1.8573191664180598e-10 2.2868833928838124e-11 0.0000000000000000e+00  -5.0308146152698883e-10 -4.9033353932775647e-11 0.0000000000000000e+00  -4.5091814679473929e-10 -4.4785532922803713e-12 0.0000000000000000e+00  3.5527773243509922e-10 2.0946897675172531e-11 0.0000000000000000e+00  7.4211384098118089e-11 -6.7261435215989515e-11 0.0000000000000000e+00  -5.2130281035598406e-10 3.4295239881760873e-12 0.0000000000000000e+00  3.2194298981837353e-10 8.8619056207113428e-12 0.0000000000000000e+00  7.0873184438471053e-10 -1.5465858192228848e-12 0.0000000000000000e+00  5.1112665735884703e-10 -2.2729865615293476e-11 0.0000000000000000e+00  -4.4644915119038030e-10 5.0805079981872686e-11 0.0000000000000000e+00  1.6709484829896874e-10 -7.2416569543921577e-13 0.0000000000000000e+00  -4.0988940925457035e-10 4.2609086517846384e-11 0.0000000000000000e+00  2.4016592254170499e-10 -7.9255297728874926e-11 0.0000000000000000e+00  -6.9326127341461130e-10 -4.5832964667946584e-12 0.0000000000000000e+00  -7.0950863929281218e-10 1.9206234230560463e-12 0.0000000000000000e+00  4.2567387463231929e-10 5.9886438992208067e-11 0.0000000000000000e+00  3.2930054264340502e-10 -8.1328692882379189e-12 0.0000000000000000e+00  2.9919292303177960e-10 1.0941592896670698e-11 0.0000000000000000e+00  5.1854532852867989e-11 -1.8034513276877393e-11 0.0000000000000000e+00  6.6306393843568241e-10 -1.2340004896005596e-12 0.0000000000000000e+00  -4.1868544111558503e-10 5.3914772675442491e-11 0.0000000000000000e+00  -7.3036878267984461e-10 8.8770679460323158e-13 0.0000000000000000e+00  2.0442187259910143e-10 -3.8779285179339531e-11 0.0000000000000000e+00  1.5412908526721351e-10 -2.3659801218934132e-11 0.0000000000000000e+00  5.8223654110033803e-10 -3.0590408563684029e-12 0.0000000000000000e+00  -6.1984111985380247e-10 -2.3221130298257568e-11 0.0000000000000000e+00  3.4803780739946062e-15 2.9180130064500233e-13 0.0000000000000000e+00  -3.8877080109473351e-10 -2.2971533915258635e-11 0.0000000000000000e+00  1.5788603458385433e-10 4.2154583644797608e-11 0.0000000000000000e+00  3.9817451446914871e-10 -1.3284704576329159e-11 0.0000000000000000e+00  -2.9083906851135660e-10 2.7945760374319890e-11 0.0000000000000000e+00  3.9593693042136718e-11 -1.9176073636473628e-11 0.0000000000000000e+00  8.1330455423548879e-11 -4.4687935548520111e-11 0.0000000000000000e+00  4.4575841612205560e-10 6.2045133111963093e-12 0.0000000000000000e+00  -2.2673171563403714e-10 2.6779619047869650e-11 0.0000000000000000e+00  -4.1861787762125529e-11 -2.1896840100291557e-11 0.0000000000000000e+00  3.2999197052039892e-10 1.8167786726340903e-11 0.0000000000000000e+00  -3.6885428815538326e-10 -6.2818136882002984e-12 0.0000000000000000e+00  -5.3860715216461646e-10 4.4077918209531045e-12 0.0000000000000000e+00  1.4060948341889622e-10 1.5479901824697212e-11 0.0000000000000000e+00  -4.0916348428026707e-10 -5.1731021636281704e-12 0.0000000000000000e+00  -4.8752455580130755e-11 1.3929385404004698e-11 0.0000000000000000e+00  4.1917767768586866e-10 -2.3084615622278751e-11 0.0000000000000000e+00  -2.0487253261414673e-10 -4.0501519031860981e-11 0.0000000000000000e+00  2.6780958400102936e-11 4.2849949544765954e-11 0.0000000000000000e+00  2.3856892143760613e-10 -4.6149742377120346e-12 0.0000000000000000e+00  5.6063733235214539e-10 4.8560913015379958e-12 0.0000000000000000e+00  3.4514002346393306e-10 3.0627752471355395e-11 0.0000000000000000e+00  4.8477274986031465e-10 2.6141065734420149e-11 0.0000000000000000e+00  2.2356901338664720e-10 -3.9159592260171490e-11 0.0000000000000000e+00  -1.9525310461589760e-10 5.1088127018278675e-11 0.0000000000000000e+00  3.5526918888802288e-10 -7.4614065229824946e-12 0.0000000000000000e+00  -2.1126750002540994e-10 -4.7886648251021689e-11 0.0000000000000000e+00  3.5677105420957774e-11 4.8445971986386668e-11 0.0000000000000000e+00  -4.7763006541711783e-10 2.6414608246920437e-11 0.0000000000000000e+00  1.8006365966982663e-10 -4.4114926596945995e-11 0.0000000000000000e+00  -1.7104099440305715e-10 9.0416894519282902e-12 0.0000000000000000e+00  -5.6876408713920860e-10 -8.8371820640552402e-12 0.0000000000000000e+00  -5.9127045054497182e-10 -7.6782385828072212e-12 0.0000000000000000e+00  -5.2200698113665135e-10 1.0901324778992005e-11 0.0000000000000000e+00  4.7465649509100309e-10 -3.0401765247829765e-11 0.0000000000000000e+00  -5.0994572218405103e-10 9.5483194226898125e-12 0.0000000000000000e+00  6.0195443623814522e-10 -5.2239963055941327e-12 0.0000000000000000e+00  -2.2436260695423484e-10 -2.3272348362293330e-11 0.0000000000000000e+00  3.1604625082089539e-10 4.3156490688820553e-11 0.0000000000000000e+00  3.0318908333686376e-10 5.5853281796465043e-12 0.0000000000000000e+00  1.6629724436804015e-10 1.8050856601984179e-11 0.0000000000000000e+00  </DataArray> 
</PointData> 
</Piece>
</UnstructuredGrid>
</VTKFile>