<?xml version="1.0"?>
<VTKFile type="UnstructuredGrid"  version="0.1"  >
<UnstructuredGrid>
<Piece  NumberOfPoints="201" NumberOfCells="657">
<Points>
<DataArray  type="Float64"  NumberOfComponents="3"  format="ascii">-0.04271561671192947 -0.01837068114275377 1232.008085897089  -0.02154027524980703 -0.002539841159905196 -1232.048392217985  2324.417288038474 0.01127703931630774 -1172.312534672421  4420.030775671567 0.001987719328943701 -998.3828272310201  6081.381901931619 -0.001846858562889683 -726.568080025158  7147.024025332806 -0.005294714067538518 -382.3785394169129  7514.043154473476 -0.02459800177160052 0.009910571498101751  7147.034296230192 -0.03215632890093301 382.368713377388  6081.380007995586 -0.01279371176866792 726.5396754291148  4420.016718681167 -0.004059422957689583 998.3940683349457  2324.421299231417 0.02416594007644608 1172.263660716262  2944.3051054624 -2187.212929625292 -1072.444249958835  2925.309457888892 1699.016891503457 1098.830500995233  7152.420540059321 -1945.548240140412 -183.502275041838  5152.198017849944 -2123.899878303904 823.7680366283287  6506.635259384812 1968.087349321921 520.1558287400691  6479.646382426115 1968.025763670011 -529.1981022144058  3287.580122020601 1957.682088842542 -1058.427980031595  1133.046084563447 -1958.035987559382 1172.290936055859  5118.898722822696 -1957.104338923818 -841.0967126701654  3563.272305210669 -3840.054233576194 -869.0619071359322  5292.829166748364 -3762.796796417265 -599.2910393020841  3629.086937870824 -5378.738291867887 -575.6665191451998  5112.445832197926 -5046.996518677937 -283.7055762303972  3207.861907111363 -6402.52726579397 -240.9863460632003  4567.432251735979 -5745.645396818454 60.97288531761075  2399.090544254897 -6840.224825078254 109.9776171143972  3480.307270868734 -5943.216262099856 417.1190502746966  1253.722594863074 -6659.963693126875 443.4863758465607  2227.856770721151 -5433.769497078026 732.0508905533402  -86.57275537100128 -5836.792840175928 733.4430503529553  5337.215823251177 -4668.713084767824 352.0391730644139  5118.945185257967 1957.08183220803 841.0950936157889  5185.412319718119 3787.672834027347 619.8104529656617  6278.224844062927 3628.757245471278 280.7662757869216  833.6296671203088 -4338.252320774835 979.6536214418294  3052.59061977732 -3803.955954429151 924.0508276244473  3563.02724971222 3621.150754877759 895.8247123749118  3432.197665699323 5295.858903137134 628.2265784074364  7166.137049396816 -1898.147031860983 183.4818194080322  6318.139251503892 -3922.368967315695 21.25266534715428  6521.077475773442 -1969.837876496227 -515.030048663894  1133.039561519877 1958.048087989005 -1172.243564492521  5068.046262672952 1908.051651151059 -852.5819943351531  5145.745506431196 3767.32519760477 -632.2140464766795  1556.955215221122 -6461.482636484009 -499.4240143008358  -1089.297965017302 -6739.049119228386 419.8758572929978  1520.460094507035 -3939.362883859641 -1005.732541488263  6235.362875718863 3672.087955351793 -290.1539595424812  4662.910076549795 5304.900145082388 -349.2093327883116  3311.740322663956 5164.137676113714 -675.7526942215781  2614.006851248854 6429.919300735976 -376.4287102435299  1155.094201168617 6038.958590147486 -657.605496966753  338.0132432192367 6961.035261657324 -341.6038499858985  -1184.083272971558 6213.190532262548 -607.1126302774087  -1953.388560390511 6836.2797669313 -257.6778523877917  -3442.978778701547 5839.117162343886 -465.5916535013887  -375.7398060799135 7239.588535453838 22.83120808733488  -2400.674708458932 -5610.738075293657 676.4497848434237  -3315.134877456825 -6203.286186742496 335.2229756465511  -4041.922960092458 6067.185277908859 -125.9002301530493  -5339.48369468483 4746.241216925861 -319.4101251087376  -5687.162511172609 4735.345000520697 28.58855556907874  -6671.53545722098 3124.338886286334 -199.6957961660914  -6762.928308039145 2965.604931091266 186.2968669137791  -5928.037426227386 2961.901907151365 -568.1841282175716  -5469.648762809161 4382.35287331681 400.8735882067393  -7058.40858440288 1295.339101856128 -362.5671051800556  -6248.800609136653 2438.342276157221 547.0840575986585  -6010.046551442084 831.8073708414 -728.7567868943452  -6747.499152614566 -940.8462251443431 -520.5358713303867  -4649.579618708085 3676.187992199817 742.0542412814597  -1038.893846816274 -3006.435459051887 1109.244671638161  -4528.153223097622 -4797.89064809028 552.0402477280252  -5401.312366417001 -1274.843724775855 -831.409354552945  -5833.894038066955 -2991.490712334491 -589.6487169191585  -7220.234220562756 822.0909841324825 312.9262632646969  -2513.211746664037 4837.34687486001 -822.6892788025103  -5143.438351213455 1570.00435035453 860.3514492680069  1616.9286635864 4888.226883071196 872.9707084711962  -6956.477796396586 -2450.098602831381 -209.8064741154071  -4377.136101443793 509.3051734502376 -999.7586527525533  -3410.150443701179 2798.10465378911 991.6199555060645  -4205.306613243782 -3219.042810021194 -864.7861514964898  -4402.009927324742 -4791.549769709681 -580.517670574635  -3709.799433807338 5395.620772807634 556.8458383267564  -1893.790708660014 -7000.422862140296 79.6479370442464  -3591.936883605992 471.1726834350046 1080.668779742815  -5305.687661483728 -680.4989350942831 867.4049298017848  -2541.525499981786 -4806.423080691967 -825.5472417693804  -2549.152757196809 -6125.673529537708 -511.9623075835971  -2190.81271826236 -3044.586299561945 -1060.506361462413  3809.83501750388 6245.524752203645 -34.91855391003918  -5123.735242522461 -5145.370824175591 219.3896102838087  -6169.792186567896 -3475.196334353184 383.8278741265207  1345.94434341434 6291.677408043593 573.584998379982  -486.0228707808942 5675.44726470924 765.1715467408075  -168.4213815573137 4277.722384229568 996.3813589138553  -2037.5601700778 1807.79799688619 1146.354015758724  -3396.53010084979 -3925.00187270311 876.0304836344799  1772.806988990235 4779.012842015817 -882.2284089684213  -4211.859064129385 -5792.213983199024 -270.0855449649937  -556.8875461993563 3667.095761863638 -1060.45535229324  -1234.333714593366 1572.634907335842 -1186.091304756063  -836.2433496882304 6772.696290853274 419.7925065428668  -1589.273846571381 -1113.191303624414 1189.645998282434  -543.183161953 -5942.827186430685 -702.8138307237841  -3433.086850288343 -1788.435359868929 1054.68316131284  -5290.258095929318 -2878.06898003393 728.3036070381632  -6584.826589490858 -1383.108482857455 547.5888363518151  -7203.302349463906 -1795.230949549748 173.6963685082498  -7481.676883446379 -233.4788851011543 -107.5446967118348  -2888.191511695901 3115.469307361366 -1008.667082842686  -4379.259759120632 3445.215246895006 -814.9095020940614  -639.1367791512289 -6824.181125629065 -404.6615660758887  -255.7577859016333 5358.958543126002 -831.4057002623966  2996.524993610849 6373.897494817909 323.0125801775436  6477.543662054099 -1882.803581229365 538.8010535634911  375.7910155424886 -2054.90253435956 -1180.421472812472  1187.744336056668 -7071.417794496963 -190.5454498747912  -2289.405226715038 4633.244309402089 872.6614125280547  7182.985932934421 1824.100431737592 -187.4152601487161  4801.107547228228 5256.646333059784 318.2765739664728  5663.40647564708 4763.928757839643 -14.14550299194959  -5737.239630069072 -4308.893209459246 -312.8422954818579  -2489.600498635373 6817.194773628923 96.30816567138569  -4176.902142222913 5879.269774238847 226.3254856721779  -407.815121433652 -4435.114184030465 -974.4132043519542  -1752.860323981675 -809.7505285985046 -1190.606934821372  -3694.424248175545 -1299.291205989386 -1051.600085752433  1735.867519057714 7044.107395440027 -63.22203723292374  203.3604321566731 -7202.491132149171 137.4831047262371  4150.547303504173 -4581.879358661529 672.4965880601338  7195.648013581282 1847.443113172757 166.3377485767759  3289.403139385965 -1943.572250211381 1059.048832112516  -6355.363831380509 -3863.804679084073 30.56342286267896  -1345.808861470435 -4785.744018521768 901.2322371361203  3663.236973179538 3510.641766394691 -897.6263628006037  -6439.74775117947 578.0415490474858 629.9915776138946  1687.558086121277 -5400.628180330328 -776.7376366400197  1842.029642986856 3483.869278001401 1039.154084117541  1070.440197713907 7012.774102948112 259.9630545349038  -4674.478614319052 4545.758312057127 -580.3703154289817  6284.521378753566 -3494.604926694049 -323.3885303436487  -115.1292151957817 1887.376820366387 1189.774829757183  5693.06523104785 -3401.678020859666 561.5670717020815  -7295.502815367137 1727.847431804225 -28.16308201868961  -3883.897703590808 -6206.038246504048 11.91206822708627  -2371.952900200758 -6773.817922854766 -205.039016060001  6741.029455916226 3202.574478381023 -8.624013791029741  -1678.538374959098 3574.250997614471 1037.759047704771  2088.769383321099 3245.865077525968 -1048.81613568182  -2535.849744523105 533.0920220811569 -1157.046873252974  -2747.56727689372 6343.642344757833 392.9658609563222  6391.594939751545 -3250.282590831793 340.2896461538573  -511.9054419914718 -7196.519920988002 -124.2292468792739  -4821.817626608447 1885.702210924778 -891.4887964296381  -3296.271308956867 1602.926391303604 -1074.733522612512  -2101.85946021584 5833.939071413844 647.9099157304606  -5283.599375586396 -5139.049366687899 -69.21901606761597  0.002006044107613666 0.008249117282414242 -0.004094052465273613  -2398.294199636982 -2839.061978113441 34.14893887197661  3626.511241137486 1107.182362693197 -5.640002217442659  -1444.817697399699 2984.256594375954 271.6739633975788  2703.252700426016 -2115.50029578366 247.1608469365226  -1761.521200064978 309.7095694320674 -548.6992113350693  -3729.92451438926 563.4912284559235 0.4506491947320843  712.6479323608282 3375.535933021963 -235.9264698583615  2519.491615134466 -1663.50865823905 -369.3588713966755  -1959.99643590316 -316.1073464605542 532.2463987854989  1879.258607630759 2511.723623924611 429.3820179558453  -693.9455057507074 -2866.42856009013 -466.3785200524561  620.5926601237995 -4139.180747043068 2.277179963857677  1496.456267511903 109
[...]
<PointData  Vectors="Velocity"> 
<DataArray  type="Float64"  Name="Velocity"  NumberOfComponents="3" format="ascii">-1.9212510260166282e-09 -8.1866513424292260e-10 -3.1873680087155073e-07  -9.6441422285890490e-10 -1.1419141710413622e-10 3.1693207672065360e-07  3.0533973085720743e-07 4.9548656557478745e-10 2.7613121868274762e-07  5.2327719264459185e-07 8.1103534253946317e-11 1.8325304246336239e-07  6.1799071430781531e-07 -8.6407792013841711e-11 7.9430201283471108e-08  6.3342262993133154e-07 -2.4146908008620895e-10 2.3900040612915722e-08  6.3084755371480600e-07 -1.1068295726886804e-09 4.4536001580222335e-10  6.3388197078522369e-07 -1.4458284128394589e-09 -2.4337743127890041e-08  6.1790659355915401e-07 -5.7799722433871906e-10 -8.0701753945644928e-08  5.2264825508440271e-07 -1.9110079164828767e-10 -1.8275508262856571e-07  3.0552262516930319e-07 1.0834154433179591e-09 -2.7832656702837758e-07  3.6330567471526868e-07 -2.2468745294358571e-07 2.1744265900116425e-07  3.6923232463368408e-07 1.7711672271935550e-07 -2.3462386336726269e-07  6.0888537518826874e-07 -1.3353699327979440e-07 8.4513191845260744e-09  5.5179945167546258e-07 -1.8541681124669557e-07 -1.0980901553115069e-07  6.0463173749233169e-07 1.4903095695074968e-07 -3.9035412488009044e-08  6.0494899995763279e-07 1.4728530565727955e-07 4.1063821423018678e-08  4.0167658759427349e-07 1.9934786415709285e-07 2.1020138373892267e-07  1.4849115771102687e-07 -2.1533041334550230e-07 -2.7710492425570530e-07  5.5222498626864051e-07 -1.7332505973219939e-07 1.1655364993579081e-07  3.8920531003944379e-07 -3.4616889198342752e-07 1.2740949595289250e-07  5.0956905348610240e-07 -2.9228127645055497e-07 5.4797365894156181e-08  3.4302744543079351e-07 -4.1208600668803168e-07 5.0107140014523814e-08  4.4126713181674835e-07 -3.4640174655934695e-07 1.5303248430711728e-08  2.7392132282743465e-07 -4.3738341892407470e-07 1.2991032130415708e-08  3.8215500926434377e-07 -3.8156973585890680e-07 -2.7211526029995478e-09  1.9936481650203397e-07 -4.5901042724710899e-07 -6.1881284683363303e-09  3.0993427152280997e-07 -4.2598692768985618e-07 -2.8047951648435520e-08  1.1249101573588334e-07 -4.8416780986696466e-07 -3.2944359692097385e-08  2.2614596026804202e-07 -4.5254622272326356e-07 -8.5140468660752003e-08  -9.0400860480198160e-09 -4.8670957605099153e-07 -8.6160336487206217e-08  4.7093111317523249e-07 -3.2815480823199111e-07 -2.2384490961724290e-08  5.5431586239799196e-07 1.7230861951657962e-07 -1.1662247877671785e-07  5.0344247220107602e-07 2.9642744746271929e-07 -5.7673285145800792e-08  5.4344353752264719e-07 2.5019075158618462e-07 -1.5608416327620353e-08  9.5992982794578426e-08 -4.2194617707622316e-07 -1.7798174387667789e-07  3.4702607947581427e-07 -3.5618951044650038e-07 -1.5228719534097882e-07  3.9510532448350168e-07 3.3088221032989988e-07 -1.3663641022328666e-07  3.3181118944374360e-07 4.1616547402965059e-07 -6.1922737433966918e-08  6.1109660789950498e-07 -1.3075657280296804e-07 -8.3265738415491834e-09  5.3339914493912493e-07 -2.6303124398277517e-07 -7.5976868543404409e-10  6.0741310584466157e-07 -1.4893849819981485e-07 3.9471734137041916e-08  1.4818337036569000e-07 2.1587348388861278e-07 2.7923579371789361e-07  5.5128835994388792e-07 1.7088348605231450e-07 1.1985611452356271e-07  5.0035673878798510e-07 2.9639781768793004e-07 6.0401213871240690e-08  1.4221643201862251e-07 -4.8041065602649847e-07 3.9910217308527103e-08  -1.0070084845682636e-07 -4.8874147603211978e-07 -2.9733938579359429e-08  1.8048177399357096e-07 -3.8771130831783096e-07 1.8826065542748187e-07  5.4143081649478720e-07 2.5609757334808555e-07 1.5968335616886610e-08  4.0883627152561700e-07 3.7085161377665445e-07 2.0869833911629414e-08  3.2829260363897408e-07 4.1444363446440519e-07 7.1607299066754627e-08  2.3071222903229206e-07 4.5534289808560002e-07 2.5132473660353366e-08  1.1344685074415506e-07 4.8127817677991298e-07 6.8156545746546527e-08  2.7532151607233625e-08 4.8781208189690265e-07 2.2030429540268726e-08  -1.1485072866946028e-07 4.8503966616104776e-07 5.9397851673467342e-08  -1.6920206235496527e-07 4.6871670802068772e-07 1.4453173723046618e-08  -3.1541537381501203e-07 4.2921732735908264e-07 3.3742882666574591e-08  -3.3863631725090011e-08 4.8189135161512587e-07 -6.5929671361272395e-10  -2.3901379534070701e-07 -4.5487941033289352e-07 -7.2965390369641238e-08  -2.8991440998413416e-07 -4.3749675757728285e-07 -2.1011099834640313e-08  -3.4336559324481718e-07 4.0944346839447513e-07 5.5438407688042402e-09  -4.6578570707643438e-07 3.3544415764119042e-07 1.8196123155078249e-08  -4.7581233296445131e-07 3.1874412418048741e-07 -1.3894530016121205e-09  -5.7065657370740148e-07 2.1301608773918655e-07 9.6651814221933476e-09  -5.7604192621452911e-07 2.0194478510511468e-07 -1.0409635854426772e-08  -5.5942807200045970e-07 2.2781213315857101e-07 4.8128940694991745e-08  -4.8744153581316284e-07 3.1619037988967674e-07 -2.5221889263687332e-08  -6.1980324876638621e-07 9.5339897982025689e-08 2.1181715323800872e-08  -5.8498453395164397e-07 1.8565980118103929e-07 -4.4933684603393624e-08  -6.0905937128378391e-07 7.2413821852889599e-08 8.0631358259742154e-08  -6.2087101052756784e-07 -7.2321100216278278e-08 4.0261905899140184e-08  -4.7760318813616702e-07 3.0823469752827009e-07 -8.7066956073612848e-08  -1.3196735026075807e-07 -3.1725536218273665e-07 -2.4430478476845690e-07  -4.2673543388595011e-07 -3.6833517929249716e-07 -4.7855117758061859e-08  -5.7757933022953097e-07 -1.1246429079141351e-07 1.1276944750473337e-07  -5.5432500857777855e-07 -2.3347720612620958e-07 5.1805730389369870e-08  -6.2559854877767822e-07 6.1526468581548120e-08 -1.7147374931173668e-08  -2.6889630191639998e-07 4.2334871076780924e-07 1.1131582698621778e-07  -5.6006152678648865e-07 1.4193297407323475e-07 -1.2127060730926693e-07  1.7810595687165674e-07 4.4053816171063401e-07 -1.2931835531652164e-07  -5.8822070106557958e-07 -1.6897132300502192e-07 9.3131964523057537e-09  -5.1529152432341012e-07 5.0435564706648270e-08 1.8111337411942304e-07  -4.0016859927301096e-07 2.7518884500440744e-07 -1.7921901226057730e-07  -4.5753360517419100e-07 -2.9095527605282873e-07 1.2411614393795882e-07  -4.1912129105644234e-07 -3.7068329107486708e-07 5.2594578447462155e-08  -3.4966092630263772e-07 4.1483967368367338e-07 -4.8105626773570522e-08  -1.5958419675359624e-07 -4.7008355929081085e-07 -3.5605625498356652e-09  -4.4580881895507729e-07 4.8427873615892523e-08 -2.2481564229685224e-07  -5.7942876468856755e-07 -6.0278906794821701e-08 -1.2506187140461694e-07  -2.7162833961081474e-07 -4.2253865919784993e-07 1.1406502750077264e-07  -2.3598454177398190e-07 -4.5930835692864814e-07 4.0582141721091431e-08  -2.6951602666306812e-07 -3.1211262629423405e-07 2.1300067104541509e-07  3.2126500315805137e-07 4.1406793237492867e-07 1.6951356691788906e-09  -4.3956752584872106e-07 -3.5519254347284138e-07 -1.2031701433577621e-08  -5.4588843765711114e-07 -2.5002786475674321e-07 -2.3569762291939255e-08  1.2658568398971134e-07 4.8259403556811591e-07 -5.2062592598445761e-08  -5.3142519537091016e-08 4.8054632939669340e-07 -9.7544713813920162e-08  -2.0677731102418157e-08 4.1640360313494028e-07 -1.8091011557917709e-07  -2.6376690639432236e-07 1.9689802998431506e-07 -2.5992601835200834e-07  -3.7232967335599024e-07 -3.5795142312364095e-07 -1.2997563700113543e-07  1.9532609332862306e-07 4.3512441823654484e-07 1.3393960539784287e-07  -3.6341684816582889e-07 -4.0463401169051876e-07 1.5299359545819093e-08  -6.7582590257663517e-08 3.7366552143520472e-07 2.1552229766671994e-07  -1.6410020378065353e-07 1.7426024713569425e-07 2.8563833844992798e-07  -7.6795750316907545e-08 4.8847206072778070e-07 -3.0500987414743253e-08  -2.1076396084723148e-07 -1.2752212329588763e-07 -2.9118372292571537e-07  -5.4713170564022593e-08 -4.8900649282349829e-07 7.9301708889230716e-08  -4.1677555211990621e-07 -1.8145477860231697e-07 -2.0765400777871557e-07  -5.3789850071294682e-07 -2.4233541542694836e-07 -8.3938572245205269e-08  -6.1261013470882723e-07 -1.0568637747377214e-07 -4.2548062339435918e-08  -6.0466104588825354e-07 -1.2329688357583118e-07 -7.6115754675275569e-09  -6.2586320892038903e-07 -1.4819832519972197e-08 4.2000371621336268e-09  -3.4455181730889261e-07 3.0735668778443321e-07 1.8606549515274462e-07  -4.6693560172902167e-07 3.0089350032756943e-07 1.0787270734561600e-07  -6.0108310085392062e-08 -4.9187845635599682e-07 2.7990453770880262e-08  -2.8153924727102109e-08 4.7002900320764236e-07 1.1505969697333654e-07  2.6066982826899546e-07 4.4250428118083562e-07 -2.0383271521890018e-08  6.0767290537647882e-07 -1.4204357961787391e-07 -4.4221289565859274e-08  4.6929303251337026e-08 -2.2674303561201114e-07 2.8549818844964993e-07  1.0028545326207087e-07 -4.8039459861021554e-07 9.8756902085582463e-09  -2.5093578031220691e-07 4.2051664456021072e-07 -1.3057383754387078e-07  6.1124890928509619e-07 1.2461668662265088e-07 8.5996236254120803e-09  4.1758682725807114e-07 3.6443582955526351e-07 -1.7975617463024643e-08  4.7488478842328902e-07 3.1627071096284654e-07 7.0877919730399852e-10  -4.9915148553403152e-07 -3.0340502441837466e-07 1.9049906972010397e-08  -2.1054035682705311e-07 4.5818730522506054e-07 -5.1554177958731948e-09  -3.5724442368338909e-07 4.0255682595545374e-07 -1.2369856168415210e-08  -4.7352137973444442e-08 -4.2953125734305270e-07 1.7423854025316396e-07  -2.3277172243317266e-07 -8.9214949585262678e-08 2.8875738121952249e-07  -4.4987492945989498e-07 -1.2992189169099801e-07 2.0779761317826459e-07  1.4378894946844693e-07 4.7158351226745846e-07 2.4617697155929511e-09  1.4376394343476839e-08 -4.8567011232002638e-07 -7.0137492637255753e-09  4.0926927186822170e-07 -3.6926706595311066e-07 -7.0335842279229610e-08  6.1036343889648458e-07 1.2650461060378168e-07 -7.7295201975135278e-09  4.0065040402518776e-07 -1.9709522768794151e-07 -2.0919923968813344e-07  -5.3429895736728581e-07 -2.6104044684009764e-07 -1.3470317066933294e-09  -1.5086860928072362e-07 -4.4138185106095418e-07 -1.4200566927015639e-07  4.0697759968822516e-07 3.2152353356236501e-07 1.3894737366938116e-07  -6.2161528189404207e-07 4.7711151515395978e-08 -5.8659359549899865e-08  1.7465637170496251e-07 -4.6203678218833862e-07 9.8563573094615970e-08  2.2284690300510203e-07 3.5118037155349296e-07 -2.0320933147777125e-07  8.9673853950976644e-08 4.8088884631216225e-07 -1.5603788233405508e-08  -4.4654268541463917e-07 3.5235305924271706e-07 5.1621561827316640e-08  5.5165242791725310e-07 -2.4424504024600742e-07 1.9445085266471520e-08  -1.6163681555585615e-08 2.0907910635792746e-07 -2.9378188772315384e-07  5.3840401807242076e-07 -2.6234852517845546e-07 -4.8545056728071240e-08  -6.1048903638632702e-07 1.1927967317323041e-07 9.3060830863944761e-10  -3.2505688682788773e-07 -4.1951286772425409e-07 -1.6811154216979728e-09  -2.0201831242325159e-07 -4.6196945208831703e-07 1.0345573669914035e-08  5.6825840553427431e-07 2.1429515718341388e-07 -1.1749360368128600e-10  -2.0336369024010290e-07 3.5898337618036727e-07 -2.0159530313755750e-07  2.5513185506476201e-07 3.2622575258808087e-07 2.0589333051707204e-07  -3.2953508204490119e-07 5.9557451767870489e-08 2.6776973469003508e-07  -2.4628054482501689e-07 4.5430391684145508e-07 -2.6838595957387711e-08  5.6251661516957318e-07 -2.2941704363414071e-07 -2.0615816767022472e-08  -4.6997936276802454e-08 -4.8642735901773830e-07 6.4353404387735473e-09  -5.3541879866063455e-07 1.7414236520952268e-07 1.3579670769977180e-07  -4.0560987563361941e-07 1.6481095034220672e-07 2.1782231699270661e-07  -2.0713961720036991e-07 4.6348397769378340e-07 -6.6123297072612503e-08  -4.4477949463106777e-07 -3.4744033346553162e-07 3.8585954265769533e-09  8.7407651297784367e-11 3.6965279919816071e-10 -1.8465567041246804e-10  -3.0329556710307018e-07 -3.0239420391216967e-07 -7.8257930523369005e-09  4.5832088485581061e-07 1.1817944135977361e-07 1.1004651945926465e-09  -1.8739512946890064e-07 3.2283494360176680e-07 -5.8702801305612616e-08  3.4771655776140538e-07 -2.2888600238524296e-07 -5.3402838402801826e-08  -2.4356652501986170e-07 3.5841788271307455e-08 1.3650792056061113e-07  -4.7230727399416980e-07 5.9258990708556234e-08 -2.5743635946429805e-10  9.2241957657418881e-08 3.6277127502096124e-07 4.9969698447512354e-08  3.3158518726277173e-07 -1.8294815508739160e-07 8.3298073794547685e-08  -2.6697418047093934e-07 -3.6060608147721145e-08 -1.2965233309731833e-07  2.4530926069007920e-07 2.7308287627482117e-07 -9.4541998649563011e-08  -9.0176001388552532e-08 -3.1509055266598885e-07 1.0466192646053215e-07  7.5267878468457650e-08 -4.2354508738512145e-07 -6.6662366175700699e-10  2.0349309091431552e-07 1.2583600865990970e-07 1.5081967334776894e-07  -7.5191352739481476e-08 -3.4876413370580563e-07 -1.0098458048364680e-07  1.8119082555865775e-07 -4.4362977907703774e-08 -1.6562203526695513e-07  -3.1546652893298526e-07 3.2653375997263420e-07 4.5046812579090756e-08  -4.6371034001998191e-07 -1.5478766008885646e-07 6.7707760769506989e-08  4.7845402009644457e-07 2.0098309222789843e-08 -9.0280231425908894e-08  -7.0065659397650834e-08 2.2162088219009171e-07 -1.6887005975956555e-07  9.2125002702820658e-08 4.3797172816839313e-07 -3.1383484277966454e-08  3.9481881000742626e-07 2.6653614521512678e-07 7.1143450986796383e-08  3.7263531197406006e-07 3.5330090750201374e-07 -6.2411219773627321e-09  -4.5668069059868013e-07 1.7321412160261857e-07 -8.1217610111489131e-08  5.3628805890010924e-07 -1.3557608399021927e-07 1.1525334364693516e-08  -1.1777427756589234e-07 3.1560361942223692e-07 1.3635671710246212e-07  -5.1945717110702645e-07 -1.5069055299804164e-07 -4.7423226879267686e-08  5.2259120813961979e-07 2.5831042173433657e-08 7.5956955688053934e-08  3.6890387798753751e-07 -3.4980427553796785e-07 1.7092780038307507e-08  -4.9543081586326573e-07 1.3728179458525873e-07 7.7629970779193256e-08  1.2656605886681079e-07 -1.6269337806309406e-07 1.8495399710784685e-07  -1.7151522291431105e-07 -4.4022765692836768e-07 3.4399746036884469e-08  -1.6263120976468352e-07 -4.5292928245046759e-07 -3.1237301217739392e-08  1.9968915334648821e-07 -4.1589963555947920e-07 -6.6777946976406609e-08  -4.1848200901295892e-07 3.3738952748423339e-07 -2.4280282402496369e-08  1.7102289525374838e-07 -4.1168550215288494e-07 7.2448255565053164e-08  -1.1790138805630843e-07 4.5921355848355405e-07 1.3792394400321856e-08  -3.1924308229918453e-07 -1.9900665789790824e-07 1.5300757860019269e-07  4.9538925040457409e-07 2.2693129589178249e-07 -5.1342440205616181e-08  7.1998116235288155e-08 2.4914887950868478e-07 -2.2933567144186094e-08  2.1959404230847682e-07 1.3575699338032623e-07 5.2534245637319932e-08  </DataArray> 
</PointData> 
</Piece>
</UnstructuredGrid>
</VTKFile>