<?xml version="1.0"?>
<VTKFile type="UnstructuredGrid"  version="0.1"  >
<UnstructuredGrid>
<Piece  NumberOfPoints="201" NumberOfCells="657">
<Points>
<DataArray  type="Float64"  NumberOfComponents="3"  format="ascii">-0.08463463640124536 0.2040301235002275 1435.792450154697  -0.1237182440838965 1.461696139475464 -1435.71681947085  77.32809293020597 1.878893641595824 -1363.335773637542  144.7721524768264 2.188098077426989 -1155.109977142337  195.0002282645027 -0.05680045914722268 -835.080384362849  224.8854096737188 -1.015067417499112 -437.3116817714513  235.4096289280107 -1.509255193611371 -0.08312274264140841  224.7418830800193 -0.1362948912142914 437.3721195335588  194.7032046128825 1.082848000756657 834.1751638515296  144.7840451858794 0.6897878411395105 1154.356926217124  77.35760067522634 0.3794822924836476 1363.108528569255  99.30444945697207 -699.3759698340828 -1255.477650019121  97.8754160140239 544.4243366769618 1281.936913725438  229.308061354447 -680.2856267999466 -211.4559373497287  170.6095980882652 -704.0800162680752 958.5034807750881  210.5720284453541 674.4554408715045 600.5807853730788  209.9167139646377 674.8092621266236 -611.5633097081909  110.55708820122 629.8003921457358 -1236.867229221778  38.41076879457209 -616.6302347296278 1373.682738258258  168.6269611479931 -649.8329148765282 -976.5773405289063  124.1218981827741 -1237.868158631675 -1032.9981839473  181.1587683967394 -1250.380232720652 -708.0730473513569  132.5722337012863 -1733.838749175426 -700.197358281237  182.6408117224736 -1669.148389239171 -342.2656841822028  122.0861455095915 -2054.15115709846 -298.8967427112014  168.3238944351176 -1880.219491489384 74.47323474648977  93.36301496650476 -2177.450358565357 137.5079200577107  130.3247950676644 -1912.181319861902 512.5385637456994  48.43146419881914 -2101.694726033393 553.5286890626514  82.45548433065223 -1723.471639210852 892.6506403575036  -3.501814684183338 -1834.73883332609 901.4341999722492  187.2342812223636 -1552.344785483276 421.5049196863598  168.6009917594827 649.5466642386585 976.843231478288  178.3279249966386 1255.278577155836 733.4054742504673  212.0491960666101 1234.321798648758 329.9404803801591  29.87198255329824 -1368.525287472806 1175.002686071713  106.263571627037 -1218.585089454865 1098.747659535778  123.8818784748763 1167.167620248365 1062.487750206035  125.3517950647748 1701.423994313165 763.1246225767163  229.479133575445 -662.7488406105188 211.143247053228  213.9059874932675 -1334.685158476325 24.87122647749883  210.8783490146941 -675.6729798461929 -595.2695194056831  38.39433524825981 617.9511005018793 -1374.412814750801  167.3533575485127 632.6672725894456 -990.287437981275  176.8391711661467 1246.828422492343 -748.1936437154085  59.55078715384052 -2042.059504143331 -620.9992784615474  -42.54693539850165 -2125.582752526558 524.9806172493282  53.6258961947482 -1243.365370367391 -1200.828694159488  210.5942855063808 1248.190919073231 -341.5035891066524  169.2137645321197 1737.009898211959 -423.4955431031531  120.4881328399045 1656.135282592769 -819.8151599755874  100.1486237361526 2047.833043105575 -467.3078582563339  43.51005179125725 1902.692038736506 -810.9229074017474  13.64580862277606 2191.587327583384 -429.0478949931951  -45.02320961992035 1958.277665770414 -750.985438996849  -75.87665359334667 2166.154434839492 -322.8772258078093  -128.1070675032108 1876.08780557975 -571.2729915894744  -14.76038399116582 2281.255781727647 28.57413929270515  -89.44243797837976 -1782.815437216078 827.1778591488181  -125.9724748705528 -1992.077680996913 414.0896749826073  -151.4677812937017 1967.87666994615 -155.274438304412  -188.6254878433687 1576.921740145861 -383.1235881270873  -200.2922986825477 1585.500158146596 34.0575472979658  -220.2824775314219 1073.975728604892 -232.8127118623506  -222.2781757467839 1021.864793392187 216.8601643513315  -197.4889824551829 999.7662703492166 -664.2589813149336  -190.4629688626638 1460.295998646715 477.6461615930986  -223.7695414625531 451.5996513981812 -416.2508814991061  -204.9644014753216 831.5653205605278 634.8700853284686  -193.5033859078908 282.802723561007 -838.3052558034254  -214.9850030190929 -324.0118968634816 -597.6023778870963  -160.3341887637661 1205.394647643819 878.5421899559851  -35.95969985296824 -946.5986634737282 1311.160443904132  -161.1539081710391 -1569.779889181406 663.3897646489349  -175.7780925496437 -425.2094024491016 -960.8628444889545  -194.8217209899053 -1007.16459564466 -689.663234565574  -227.5897582933451 287.1168032101989 357.8794197336251  -90.58752009751237 1537.96831879717 -993.8992888308366  -168.7075165038715 520.7986752117795 996.6926014934257  58.7177599205562 1543.357731786623 1055.930818816846  -225.6896846427034 -850.8324909602686 -243.0116836250426  -143.8179452529875 167.9977092582361 -1157.340933179686  -115.6921490694537 902.821670244002 1165.222724833665  -143.835600725876 -1047.749651458586 -1019.328844750579  -156.8867292238782 -1563.820130183176 -698.2028088373366  -135.4835151696945 1741.382620905516 677.4116418999782  -74.46215218918644 -2220.242211169387 99.83839745851762  -118.9750699007177 152.5750980575056 1253.773779083122  -172.0259026162084 -225.8535317266525 1000.047500551477  -91.62656304252262 -1528.659551955875 -996.250071042621  -96.66800625804882 -1950.271719901189 -632.1246141920118  -75.55225282977703 -965.3726193233056 -1252.761349035902  144.1581427022139 2018.22275450446 -43.33408464920958  -183.6228765882649 -1703.479567648711 265.1804107887272  -207.530442537088 -1178.32982771626 450.6612910727919  51.18589566511847 1986.397904760554 710.5841670216629  -18.0649235678803 1785.160683934939 937.4256863503406  -5.780530741947624 1345.296005828824 1196.116515084483  -68.44472509498546 575.3323527848918 1340.469240339988  -118.1403001781142 -1263.102540905025 1042.28650338798  64.04265714452158 1510.852863943978 -1065.52176137167  -155.7423702481104 -1886.45442405789 -330.9205437265682  -19.51597021987194 1152.157097082274 -1263.239221626246  -41.84621979693912 496.5836324917395 -1387.051424196163  -32.53006200016915 2134.929331094484 525.1826011002064  -53.40276754970674 -354.5345317763358 1386.547922190288  -20.63984553236524 -1870.132885901415 -865.4493056262028  -114.994803947544 -574.6627696941255 1230.092316158595  -177.279033793853 -956.045664451119 852.7102906736392  -211.1419058479249 -476.4075941378998 629.8552924239972  -229.854312425939 -628.5593008055837 200.0720510454526  -234.2121807512734 -83.46151827026205 -122.7578612368768  -99.31971968306223 995.6862294044709 -1190.980319101498  -149.9212481001155 1123.400385146329 -962.5773949795072  -25.08795510297038 -2150.323554694168 -506.9967085130576  -9.238989123011114 1684.426807625661 -1014.021986293683  114.2831420711992 2038.48405046068 400.5533021049106  210.090160653381 -645.5168541636805 622.4544752860093  12.81219679888118 -645.0917605707775 -1384.785899646648  46.67201840130286 -2234.72524608666 -239.8571487831211  -82.26899522908126 1470.527487900678 1051.059163209802  229.6278754866242 637.4099856003985 -215.3394040078728  173.6231434053021 1726.494619934115 385.5637404898484  199.7834109845051 1594.325203686086 -16.81069022394347  -198.9224703309693 -1443.900325876609 -372.0704688060832  -96.75993469936714 2170.35769676441 120.4982366171501  -155.3883418035976 1909.836208520536 277.5582981830606  -14.52917272772549 -1394.170867237741 -1171.669670588783  -58.77484428521322 -256.4255865040115 -1387.07442811289  -122.6398685200639 -419.3108094380076 -1222.267302473744  68.36243663562986 2231.109105120308 -80.04423685752612  8.06864300849068 -2270.697895660594 173.3678079311017  146.6254156974365 -1489.682522079408 805.9732465238674  229.9004870657612 645.6328691073606 191.1545397394905  110.6850526399714 -623.3577018670288 1237.148870892352  -215.2490114503681 -1317.648886725015 35.97143599355596  -48.49234718773519 -1510.886303099123 1087.889115618531  126.7199703487734 1131.291416908072 -1063.24825224293  -205.504570795883 199.0223522929735 722.7526924034299  62.0862924682818 -1706.00693373499 -947.0093256222109  64.50560478308107 1103.378891653046 1234.036019790054  42.07724242008651 2212.323661795599 326.7238778008911  -165.0642679560509 1489.780779160978 -695.3378598602369  210.7332948258403 -1188.39391317102 -379.8270382961394  -3.916761621931218 596.5612371525358 1393.758946982695  192.1506951868971 -1140.818692882534 659.692742070054  -232.6157769530292 606.2367428017695 -32.42147567114837  -146.7163827608442 -2009.289337940536 14.64617669611415  -92.34966180157276 -2155.735391815758 -256.4603562258937  223.4334722434913 1102.399405357415 -10.13246021463471  -58.61131323805246 1130.987228377697 1233.761702052047  72.60510067303647 1028.257967123392 -1242.079839196702  -84.82938001221837 172.3287733253047 -1345.786661671244  -104.4798141608094 2023.229320205314 487.0663437096069  212.9416531992608 -1109.084097643317 397.7925606321252  -20.31840816867474 -2269.910326082187 -156.6813280140915  -159.8062384280743 621.2781328883359 -1036.789031198984  -110.3829095597533 515.3759592709634 -1253.213198020669  -78.35043852620703 1849.689742443061 795.465731452935  -189.436061706562 -1705.142008829736 -83.9366207762429  -0.219885778138101 -0.4270367798776966 -0.2629312866606529  -78.47931372326441 -985.0455146958541 40.01957197381769  113.9100527840995 391.5563657914773 -7.082650527699055  -47.47112771815426 1028.115596630568 317.6085759737598  86.96417248762427 -737.4097829952722 286.0448332461327  -55.81744217683553 105.9663003474379 -631.1728374079141  -116.2945820892383 200.2528431271068 0.3238504065200503  23.73146619029725 1157.141977044865 -277.405860053332  80.50350083916967 -579.4383034978108 -427.238509978209  -61.8419360153836 -109.5430537199713 612.2246280372779  61.16301038569343 863.7603798445903 500.0713238722019  -22.89015993378014 -978.8125254385775 -545.6911140537594  21.11927015083987 -1407.252007477069 2.631735217036509  47.87686506817681 377.3040493512148 -704.847516637
[...]
<PointData  Vectors="Tidal Force"> 
<DataArray  type="Float64"  Name="Tidal Force"  NumberOfComponents="3" format="ascii">8.4435824640182555e-17 1.1621594252154267e-16 0.0000000000000000e+00  8.2676744960178744e-16 1.1379477705234387e-15 0.0000000000000000e+00  3.5575627448396916e-14 4.8965650449076658e-14 0.0000000000000000e+00  6.5810688988302286e-14 9.0580642533665717e-14 0.0000000000000000e+00  8.6835209323707744e-14 1.1951841222152985e-13 0.0000000000000000e+00  9.9581500685015292e-14 1.3706217721134440e-13 0.0000000000000000e+00  1.0397568172566481e-13 1.4311024855340303e-13 0.0000000000000000e+00  1.0004589772053630e-13 1.3770136489521288e-13 0.0000000000000000e+00  8.7391078502588939e-14 1.2028350050979667e-13 0.0000000000000000e+00  6.4906522032780344e-14 8.9336163482497537e-14 0.0000000000000000e+00  3.4678496811594977e-14 4.7730856059785262e-14 0.0000000000000000e+00  -3.8265612095058734e-13 -5.2668096684575469e-13 0.0000000000000000e+00  3.7587662786385264e-13 5.1734979512746241e-13 0.0000000000000000e+00  -3.1285583924803636e-13 -4.3060912102794597e-13 0.0000000000000000e+00  -3.5367704230220464e-13 -4.8679468690617345e-13 0.0000000000000000e+00  5.0527804728429247e-13 6.9545556937266497e-13 0.0000000000000000e+00  5.0519712961901225e-13 6.9534419576108190e-13 0.0000000000000000e+00  4.3361665928029753e-13 5.9682213048844413e-13 0.0000000000000000e+00  -3.5929554280013680e-13 -4.9452788941479438e-13 0.0000000000000000e+00  -3.2144366624581499e-13 -4.4242925084857456e-13 0.0000000000000000e+00  -7.0033887484055405e-13 -9.6393376592118232e-13 0.0000000000000000e+00  -6.8244199817619540e-13 -9.3930082843755353e-13 0.0000000000000000e+00  -9.9947741074392082e-13 -1.3756626386203159e-12 0.0000000000000000e+00  -9.3752262441418702e-13 -1.2903891907951338e-12 0.0000000000000000e+00  -1.1998436226150740e-12 -1.6514430702239367e-12 0.0000000000000000e+00  -1.0728767694717594e-12 -1.4766881889881052e-12 0.0000000000000000e+00  -1.2880086961768646e-12 -1.7727918835401806e-12 0.0000000000000000e+00  -1.1094269270628787e-12 -1.5269951651071181e-12 0.0000000000000000e+00  -1.2617702636699282e-12 -1.7366777794016114e-12 0.0000000000000000e+00  -1.0155483627004355e-12 -1.3977824063469163e-12 0.0000000000000000e+00  -1.1218108480101053e-12 -1.5440401700102776e-12 0.0000000000000000e+00  -8.6410215673018820e-13 -1.1893345864417141e-12 0.0000000000000000e+00  4.7145094503781925e-13 6.4889655739997192e-13 0.0000000000000000e+00  8.4547702107830799e-13 1.1636992864538372e-12 0.0000000000000000e+00  8.4758088037559256e-13 1.1665950003549989e-12 0.0000000000000000e+00  -8.2217976979633754e-13 -1.1316333709797684e-12 0.0000000000000000e+00  -6.9654629905046601e-13 -9.5871373316958953e-13 0.0000000000000000e+00  7.6757090021029951e-13 1.0564707101539605e-12 0.0000000000000000e+00  1.0944571589860460e-12 1.5063910469642361e-12 0.0000000000000000e+00  -3.0208675344705313e-13 -4.1578674602551088e-13 0.0000000000000000e+00  -7.1920676348827492e-13 -9.8990318674380856e-13 0.0000000000000000e+00  -3.1829843177796819e-13 -4.3810020698964708e-13 0.0000000000000000e+00  3.9429419211349250e-13 5.4269939758997400e-13 0.0000000000000000e+00  4.6059390525283588e-13 6.3395312412407695e-13 0.0000000000000000e+00  8.3966150365621539e-13 1.1556949134126661e-12 0.0000000000000000e+00  -1.2203861551181586e-12 -1.6797174405732403e-12 0.0000000000000000e+00  -1.3168294576540470e-12 -1.8124602585875341e-12 0.0000000000000000e+00  -7.3517920698270941e-13 -1.0118873692041336e-12 0.0000000000000000e+00  8.5540174863288943e-13 1.1773595020310568e-12 0.0000000000000000e+00  1.1355809237451751e-12 1.5629930533031660e-12 0.0000000000000000e+00  1.0646477947287017e-12 1.4653619769231934e-12 0.0000000000000000e+00  1.2948796614069596e-12 1.7822489558628718e-12 0.0000000000000000e+00  1.1811059058636736e-12 1.6256528156460311e-12 0.0000000000000000e+00  1.3443203548931464e-12 1.8502982325401730e-12 0.0000000000000000e+00  1.1756809041305417e-12 1.6181859413390220e-12 0.0000000000000000e+00  1.2889234176104665e-12 1.7740508895841640e-12 0.0000000000000000e+00  1.0883812977713131e-12 1.4980283414336236e-12 0.0000000000000000e+00  1.3864679040260377e-12 1.9083093571821766e-12 0.0000000000000000e+00  -1.1282525977982793e-12 -1.5529064779584836e-12 0.0000000000000000e+00  -1.2722473422440305e-12 -1.7510982409361594e-12 0.0000000000000000e+00  1.1339871975550917e-12 1.5607994773880715e-12 0.0000000000000000e+00  8.7850550115005942e-13 1.2091590893035142e-12 0.0000000000000000e+00  8.7850550115005942e-13 1.2091590893035142e-12 0.0000000000000000e+00  5.5717441600376467e-13 7.6688479304496818e-13 0.0000000000000000e+00  5.2447664291185388e-13 7.2188016930350080e-13 0.0000000000000000e+00  5.2211243982192877e-13 7.1862612291289762e-13 0.0000000000000000e+00  8.0645359745710353e-13 1.1099881516851308e-12 0.0000000000000000e+00  1.7579538690086007e-13 2.4196159232985188e-13 0.0000000000000000e+00  4.1608567118937958e-13 5.7269279542240880e-13 0.0000000000000000e+00  8.6342667013306677e-14 1.1884048589015421e-13 0.0000000000000000e+00  -2.9343911774015445e-13 -4.0388429657892962e-13 0.0000000000000000e+00  6.6431292299407621e-13 9.1434829711199044e-13 0.0000000000000000e+00  -5.9385826365056387e-13 -8.1737577773963994e-13 0.0000000000000000e+00  -1.0298954165705466e-12 -1.4175294319137016e-12 0.0000000000000000e+00  -3.3775033487945026e-13 -4.6487345474804750e-13 0.0000000000000000e+00  -7.0132747762071635e-13 -9.6529446091487190e-13 0.0000000000000000e+00  7.3754692823199467e-14 1.0151462579256754e-13 0.0000000000000000e+00  8.9861178189250291e-13 1.2368330106164564e-12 0.0000000000000000e+00  2.4265800553780462e-13 3.3399009181409846e-13 0.0000000000000000e+00  9.6838040016081371e-13 1.3328612754558193e-12 0.0000000000000000e+00  -6.1958656305029960e-13 -8.5278774389214183e-13 0.0000000000000000e+00  3.8460518123603147e-14 5.2936361818562684e-14 0.0000000000000000e+00  4.9952233857132007e-13 6.8753351595744654e-13 0.0000000000000000e+00  -7.0351577274264097e-13 -9.6830639075855511e-13 0.0000000000000000e+00  -1.0243754245346947e-12 -1.4099318146713558e-12 0.0000000000000000e+00  1.0027809623829679e-12 1.3802095873714712e-12 0.0000000000000000e+00  -1.3888074800004427e-12 -1.9115295072562106e-12 0.0000000000000000e+00  4.0128125660246757e-14 5.5231626683363153e-14 0.0000000000000000e+00  -2.1444236747054364e-13 -2.9515459768814963e-13 0.0000000000000000e+00  -9.7400241881810596e-13 -1.3405993202953787e-12 0.0000000000000000e+00  -1.2337375698893875e-12 -1.6980940864844593e-12 0.0000000000000000e+00  -6.2292177812358682e-13 -8.5737827362174266e-13 0.0000000000000000e+00  1.2962587798760828e-12 1.7841471495907233e-12 0.0000000000000000e+00  -1.1214484775960247e-12 -1.5435414099236229e-12 0.0000000000000000e+00  -8.1142123847343436e-13 -1.1168255229701485e-12 0.0000000000000000e+00  1.2356408941031515e-12 1.7007137875221324e-12 0.0000000000000000e+00  1.0819289935050593e-12 1.4891475064926024e-12 0.0000000000000000e+00  8.1873900994225015e-13 1.1268975713220155e-12 0.0000000000000000e+00  3.2068726198341334e-13 4.4138814969681916e-13 0.0000000000000000e+00  -8.2359055169970070e-13 -1.1335751456860658e-12 0.0000000000000000e+00  9.5088811182285586e-13 1.3087852060301065e-12 0.0000000000000000e+00  -1.2208822155879196e-12 -1.6804002092355544e-12 0.0000000000000000e+00  6.9468167458966195e-13 9.5614729777223881e-13 0.0000000000000000e+00  2.8447836585021510e-13 3.9155087967883090e-13 0.0000000000000000e+00  1.2891626524469473e-12 1.7743801680879753e-12 0.0000000000000000e+00  -2.4017066687027927e-13 -3.3056656384065137e-13 0.0000000000000000e+00  -1.1510537886104886e-12 -1.5842896247702384e-12 0.0000000000000000e+00  -4.0194267056214898e-13 -5.5322662505005041e-13 0.0000000000000000e+00  -6.6236386270863200e-13 -9.1166564577211813e-13 0.0000000000000000e+00  -3.8469665337939172e-13 -5.2948951879002529e-13 0.0000000000000000e+00  -4.8582262602345036e-13 -6.6867747928332619e-13 0.0000000000000000e+00  -1.5525285439777565e-13 -2.1368722198054818e-13 0.0000000000000000e+00  5.6354932076409832e-13 7.7565909670534450e-13 0.0000000000000000e+00  6.1891459461253820e-13 8.5186285868290812e-13 0.0000000000000000e+00  -1.3241894470351831e-12 -1.8225904149106616e-12 0.0000000000000000e+00  1.0243296884630145e-12 1.4098688643691566e-12 0.0000000000000000e+00  1.2954214579484009e-12 1.7829946748273845e-12 0.0000000000000000e+00  -3.0026082873920912e-13 -4.1327357626848254e-13 0.0000000000000000e+00  -3.8807408636499906e-13 -5.3413815649088690e-13 0.0000000000000000e+00  -1.3438242944233855e-12 -1.8496154638778589e-12 0.0000000000000000e+00  8.6112931207098174e-13 1.1852428167987681e-12 0.0000000000000000e+00  4.9112449217898187e-13 6.7597487200749146e-13 0.0000000000000000e+00  1.1311058250392455e-12 1.5568336083495241e-12 0.0000000000000000e+00  1.0619388120214959e-12 1.4616333821006273e-12 0.0000000000000000e+00  -9.6973489151441671e-13 -1.3347255728671027e-12 0.0000000000000000e+00  1.2821615153205319e-12 1.7647439295205637e-12 0.0000000000000000e+00  1.0967791441636511e-12 1.5095869853835785e-12 0.0000000000000000e+00  -8.5762522534841421e-13 -1.1804198551841243e-12 0.0000000000000000e+00  -1.8269097924647499e-13 -2.5145256096911120e-13 0.0000000000000000e+00  -3.1052681775171141e-13 -4.2740349794672686e-13 0.0000000000000000e+00  1.3927478184836509e-12 1.9169529179072157e-12 0.0000000000000000e+00  -1.3829814081002702e-12 -1.9035106072222244e-12 0.0000000000000000e+00  -8.4404161205942477e-13 -1.1617236154309712e-12 0.0000000000000000e+00  4.9626452300395294e-13 6.8304951750849038e-13 0.0000000000000000e+00  -3.3117841319495601e-13 -4.5582798055512076e-13 0.0000000000000000e+00  -8.9985721030594550e-13 -1.2385471957686493e-12 0.0000000000000000e+00  -9.4399251947724094e-13 -1.2992942373908471e-12 0.0000000000000000e+00  7.4693337740449495e-13 1.0280655968693201e-12 0.0000000000000000e+00  2.9865654807104572e-14 4.1106547336057325e-14 0.0000000000000000e+00  -1.0139651909884323e-12 -1.3956033574246372e-12 0.0000000000000000e+00  7.0225978985111827e-13 9.6657767861354737e-13 0.0000000000000000e+00  1.3696124025322412e-12 1.8851097496563134e-12 0.0000000000000000e+00  8.3586189154740717e-13 1.1504651959991967e-12 0.0000000000000000e+00  -6.3131962451592492e-13 -8.6893691757169775e-13 0.0000000000000000e+00  3.6239855935566352e-13 4.9879882530246112e-13 0.0000000000000000e+00  -6.1062229300100016e-13 -8.4044948466110475e-13 0.0000000000000000e+00  2.6618745533753552e-13 3.6637560113010167e-13 0.0000000000000000e+00  -1.2919244075445531e-12 -1.7781813978746170e-12 0.0000000000000000e+00  -1.3573234718877347e-12 -1.8681954876884904e-12 0.0000000000000000e+00  7.7210228946598932e-13 1.0627076324026167e-12 0.0000000000000000e+00  6.6431995931279628e-13 9.1435798177386746e-13 0.0000000000000000e+00  6.6000317777806703e-13 9.0841644171245377e-13 0.0000000000000000e+00  6.7393860700305718e-14 9.2759691455944664e-14 0.0000000000000000e+00  1.1888282656588902e-12 1.6362817320558136e-12 0.0000000000000000e+00  -5.8191411262333821e-13 -8.0093606420378018e-13 0.0000000000000000e+00  -1.3951190578922963e-12 -1.9202166489596961e-12 0.0000000000000000e+00  3.0795856141890585e-13 4.2386859636169650e-13 0.0000000000000000e+00  2.6539235132217378e-13 3.6528123433802385e-13 0.0000000000000000e+00  1.0944782679422064e-12 1.5064201009498667e-12 0.0000000000000000e+00  -1.1250440364619523e-12 -1.5484902721426651e-12 0.0000000000000000e+00  -3.5533409536076823e-16 -4.8907542477815879e-16 0.0000000000000000e+00  -6.3591785879945492e-13 -8.7526584410818363e-13 0.0000000000000000e+00  2.8958673324094610e-13 3.9858194420138416e-13 0.0000000000000000e+00  6.0613312165763047e-13 8.3427067038370940e-13 0.0000000000000000e+00  -4.1112154833240889e-13 -5.6586026646832974e-13 0.0000000000000000e+00  3.9783346042966015e-14 5.4757078251400196e-14 0.0000000000000000e+00  7.0324487447192048e-14 9.6793353127629862e-14 0.0000000000000000e+00  7.1660684372122933e-13 9.8632470418033259e-13 0.0000000000000000e+00  -3.1761942702148667e-13 -4.3716563711853635e-13 0.0000000000000000e+00  -9.4378142991564045e-14 -1.2990036975345434e-13 0.0000000000000000e+00  5.5422619846007826e-13 7.6282691971859086e-13 0.0000000000000000e+00  -6.0741373166467322e-13 -8.3603327884528599e-13 0.0000000000000000e+00  -8.4933292373687627e-13 -1.1690064811623209e-12 0.0000000000000000e+00  2.5151321264694380e-13 3.4617823878604526e-13 0.0000000000000000e+00  -6.7652445413266267e-13 -9.3115602779916866e-13 0.0000000000000000e+00  -6.3150960512136532e-14 -8.6919840344237127e-14 0.0000000000000000e+00  6.2435718714246993e-13 8.5935394464460908e-13 0.0000000000000000e+00  -3.7302691878224648e-13 -5.1342750706736031e-13 0.0000000000000000e+00  9.4353515876043996e-14 1.2986647343688554e-13 0.0000000000000000e+00  3.9617992553045652e-13 5.4529488697295507e-13 0.0000000000000000e+00  9.2288356331719531e-13 1.2702402517604615e-12 0.0000000000000000e+00  5.9679592671617027e-13 8.2141912407320213e-13 0.0000000000000000e+00  8.1636777053360497e-13 1.1236338402695353e-12 0.0000000000000000e+00  2.9981050434112822e-13 4.1265375790836764e-13 0.0000000000000000e+00  -2.3248348866866265e-13 -3.1998607074025258e-13 0.0000000000000000e+00  5.8505582893182497e-13 8.0526026573176930e-13 0.0000000000000000e+00  -3.8877771823700058e-13 -5.3510662267856648e-13 0.0000000000000000e+00  1.1558912577304990e-13 1.5909478298105351e-13 0.0000000000000000e+00  -7.0887392944793254e-13 -9.7568126077773490e-13 0.0000000000000000e+00  2.2597489385264859e-13 3.1102775850421702e-13 0.0000000000000000e+00  -2.7924686288188376e-13 -3.8435033357343358e-13 0.0000000000000000e+00  -9.5477215975630433e-13 -1.3141311393860974e-12 0.0000000000000000e+00  -9.9919243983576024e-13 -1.3752704098143056e-12 0.0000000000000000e+00  -8.3882769988789346e-13 -1.1545472809802658e-12 0.0000000000000000e+00  6.9776710034838855e-13 9.6039402200521361e-13 0.0000000000000000e+00  -8.2155353743025620e-13 -1.1307714360727336e-12 0.0000000000000000e+00  9.7436127107282658e-13 1.3410932380510955e-12 0.0000000000000000e+00  -4.1462211689561638e-13 -5.7067838575203532e-13 0.0000000000000000e+00  5.5899682255224860e-13 7.6939312047105832e-13 0.0000000000000000e+00  4.7199625973862047e-13 6.4964711869542356e-13 0.0000000000000000e+00  2.7497229925947454e-13 3.7846690148328057e-13 0.0000000000000000e+00  </DataArray> 
</PointData> 
</Piece>
</UnstructuredGrid>
</VTKFile>