<?xml version="1.0"?>
<VTKFile type="UnstructuredGrid"  version="0.1"  >
<UnstructuredGrid>
<Piece  NumberOfPoints="201" NumberOfCells="657">
<Points>
<DataArray  type="Float64"  NumberOfComponents="3"  format="ascii">-14.98568521238775 2.043930843666052 353.325511737552  -15.80802924065781 -1.711254492118693 -355.9170254420094  3124.068836976606 2.332120274834328 -364.5739402323974  5359.609371906999 -0.4545410591552105 -371.2581554887653  6664.406966660789 -2.512815453647181 -327.8564002620903  7339.796540455145 -1.950765752883533 -187.1471838669857  7550.929270861103 -1.184539976016381 9.74966758363364  7340.230548433146 -1.575447035889608 206.1496116398862  6663.909107666628 -2.067256862642093 345.7558800515744  5362.017614307059 1.101004764454169 387.66912402561  3121.757553048977 1.780593928799338 375.7540072913202  3788.21875656423 -724.6062860519412 -353.5642628350627  3809.788692366013 562.5017456228823 370.3770715528525  7282.239275041146 -820.7205379428842 -85.02052273929003  5898.171726793122 -793.8585317243183 350.6312751571801  6872.28907023455 799.2217124130723 260.4432733499279  6858.083698035386 799.5478763985112 -245.2644415142177  4174.824253399631 661.5796652988359 -357.7767714087738  1559.069929029303 -600.6641713543963 349.5175065699195  5881.225691948292 -731.8667413493445 -337.7873734426933  4308.865988741847 -1310.981918040624 -305.3708826199191  5849.704756229346 -1415.537220739459 -244.5761002684612  4192.993789313564 -1845.636686062355 -205.0186064331877  5518.509483257031 -1872.759611462683 -110.2237876620264  3650.407363838589 -2152.737346331278 -80.99767710374977  4971.371271683379 -2067.380751211699 32.42184049053816  2761.023036071141 -2225.414547310907 42.68718410663835  3972.921232231168 -2025.132657788954 159.8770594346669  1496.402422614293 -2092.432223553594 145.9550982096737  2729.943399916619 -1750.264400555464 246.4356720486296  -106.8635641635822 -1805.214919750131 227.3524685886457  5754.653695467839 -1756.664115875672 158.102799179633  5888.510018235074 733.1408481759341 357.3193141027047  5764.180412604237 1418.043079931246 269.6329927108759  6555.454705848522 1448.003867802752 140.8366472217715  1094.854097823967 -1342.532958927923 299.9266947816446  3811.222382086794 -1264.325441955577 321.4013954455574  4338.582082262485 1239.286854162563 327.5477399690855  4018.43973364949 1797.716879923473 231.9976519216164  7295.210755373656 -801.5457672760791 102.9511085443837  6558.256108083893 -1561.564507244775 19.30613393087665  6898.976881950076 -802.4111426934329 -237.5728027470271  1541.280076706834 604.7243658347318 -343.4342108280027  5851.532417702172 709.4867897553107 -341.5697651044904  5727.688770469713 1408.059258218635 -256.5837606219927  1866.215330435157 -2042.00896556258 -158.9871274705588  -1318.858320707898 -2111.557670477006 131.99883568487  2000.058167475221 -1233.426023602956 -305.2793342939775  6522.320306654692 1460.525009283214 -126.5112406592598  5126.277836005009 1923.421127185228 -133.6928874742709  3921.958541647826 1741.090318973598 -233.1421128951214  3043.025764651619 2106.372836757226 -124.738496185655  1420.139419389763 1888.771061762525 -206.142843925701  390.8340743532505 2170.138732763792 -108.8632466052778  -1461.593702970848 1946.411114130684 -196.4571439244106  -2298.977434013869 2196.537597139918 -90.75173324737473  -3957.014075311553 1987.718493968862 -176.8752151148251  -458.3624017533753 2258.6133596431 6.161764550642581  -2916.652882850301 -1827.782860355749 223.3704468264359  -3774.750996509469 -2105.967391829091 117.1533708481843  -4478.001008500956 2126.581066014878 -54.96001950419588  -5737.9079734195 1787.490964608576 -145.6427138126016  -5987.604575618153 1818.718976376033 3.903364740989713  -6873.740657608492 1279.717672511189 -107.2119416292738  -6942.130284628883 1221.293377486482 81.45581880916131  -6391.344738901305 1161.577501663085 -266.8867117830904  -5884.683143610663 1664.526164051771 166.5932576572309  -7242.694482402213 543.734051609622 -194.3314393449025  -6658.740694983172 976.5835468588568 246.4394856373477  -6592.008366512171 328.4673995333228 -344.0756685732441  -7065.627611083933 -388.5386393501833 -267.7819545436776  -5340.765066500827 1334.86672551663 286.2563427858152  -1423.276219619165 -930.0321388958373 325.1794144147811  -5080.84104324969 -1726.439617643981 209.2771441493481  -6133.070328894655 -487.1724766154661 -365.2952624858752  -6323.264292636517 -1167.125301635971 -273.060485777017  -7355.177331609071 348.2014673668644 153.0773297509967  -3109.18578990878 1579.43368417001 -280.9791771563735  -5916.698316200217 589.7118723016878 351.4931490001196  2054.99309978882 1536.770716442392 278.745814334305  -7101.204511707323 -1021.699025537221 -116.2212405580044  -5301.968477740021 183.7581605388998 -388.5676464706552  -4246.838177416198 946.5621498939746 338.7372591622438  -4980.517071043564 -1140.78541309601 -334.9811995393604  -4973.890719457509 -1712.915034109192 -234.3884083589124  -4264.543754158743 1860.549570141767 199.6143373252239  -2212.209030703421 -2246.340300867117 22.84159868191895  -4545.267487130148 165.6844511931067 371.0161995200122  -6085.203946442944 -259.8571726460485 356.9043114089421  -3139.288783066611 -1573.291373031794 -283.1030119517217  -3011.692248753808 -2010.785695924968 -182.0139409733776  -2877.60817999887 -973.9336902177298 -342.7981964507503  4259.05028092126 2156.373872961826 -5.451347030060555  -5515.977665015697 -1909.861961115318 82.82536549642417  -6505.991198597693 -1378.883348378831 170.1486794546763  1632.736142245653 1980.186784068414 186.5389166247589  -626.1492186129218 1756.431438095722 234.6789310466717  -223.4031520843992 1315.072062176747 297.3835214965883  -2733.741593472293 575.5224797587395 353.8272062628023  -4125.613725672365 -1334.019271047457 304.4036721524755  2249.671913037419 1513.120635340179 -276.0700162381611  -4657.818945844735 -2049.352971287221 -112.6153036593321  -738.5690703305894 1126.10187062042 -316.3104210972909  -1699.107462831029 488.1721286051498 -355.1843805744573  -1018.300392375847 2114.283098658243 131.8877854526473  -2182.514543192985 -350.0688454770831 353.5362013599595  -674.9168541781568 -1842.103475955236 -220.249401986253  -4325.127112771256 -606.7562292917888 361.4232414876892  -5941.337601487998 -1085.790966148638 297.1846879442544  -6945.437916371407 -566.2120953071945 260.0501295379019  -7294.195222670337 -760.0186270716031 81.00241737390678  -7514.714484020193 -100.3376652271206 -67.70216255221612  -3672.111706793713 1030.421282274626 -345.8045757241712  -5127.088025596612 1231.74318768209 -321.2975668967092  -776.9466355620701 -2126.970415182109 -131.0935329599718  -331.1645066186107 1654.14729650295 -255.8152652838579  3442.804595893923 2121.919118887518 120.296455259398  6873.543328198004 -766.6595895738384 265.4228590247081  497.3833322663351 -625.9962795965309 -340.3549730865615  1395.959107934875 -2223.997976858829 -59.73189818971559  -2876.994737849665 1496.718516236297 281.4724540476689  7295.014611409529 770.3286846355111 -87.43601809610041  5245.48794470972 1920.663688629461 138.6776096813625  5974.006902988724 1828.851172008414 2.228202099531012  -6096.163375669715 -1658.599480552823 -145.7526084053345  -2873.402671632691 2233.956930323075 28.46720827533644  -4618.831424138884 2075.37510182275 80.9482963959653  -538.4591090211998 -1363.146802902221 -293.7988702487226  -2387.035865783641 -254.8958118686435 -366.9221879473478  -4630.062331377118 -446.6458183449079 -382.8248213141296  2021.571821804052 2243.650194242394 -17.70279149409997  230.1552123349442 -2246.215274316193 44.301249348308  4780.746490345281 -1614.24461677665 264.2868853842443  7300.117074770926 780.081165984339 95.1090367233539  4169.450334563013 -656.2388809189035 372.905158232474  -6588.383550940614 -1544.899137945908 5.914517501932258  -1740.887573511032 -1498.334609426582 275.5227827653512  4450.911183903574 1206.874579855048 -315.5199460279488  -6882.209954376382 234.0186872957729 293.7265204947289  2103.958727293472 -1706.329816362535 -243.7198849783237  2417.570751414375 1101.226497003819 326.921108510246  1253.656854369181 2203.04766546464 86.14996542421601  -5250.753168591181 1650.630213530294 -240.7086491858864  6591.968002106702 -1392.064308286066 -141.1578282174451  -154.4220508643282 576.2530466184428 342.5218556887637  6186.254861223428 -1309.330170152748 255.3906213973195  -7357.463524791568 735.0194285820836 -24.55883891308097  -4301.47026226888 -2161.458077009368 -2.752707969580717  -2749.640189730185 -2210.435465743447 -75.59012507195112  6905.151813017183 1314.9857880496 4.618493288275384  -2216.091712310808 1128.815662972617 318.4321893664091  2742.632571301364 1034.783920163172 -325.1953132037924  -3370.904332622178 172.3585849640834 -378.5667376908567  -3198.416648949809 2097.786170123024 132.4735857521039  6687.692182645531 -1302.872241154228 168.9338873415101  -617.4858349093598 -2246.694620712092 -41.661095882696  -5647.488953498296 693.3181946833696 -365.0291476692486  -4188.950975524239 540.5665232339414 -377.6201900846752  -2557.103352612397 1877.857378854056 210.7150708771507  -5637.335180583646 -1923.09491622535 -37.36375248514015  -12.66230014930036 -0.2965861876616683 -0.5547322808671535  -3139.739478314028 -918.8423172391441 4.574781950158131  4589.130531456754 379.170703892477 6.110723336538009  -1952.004418390397 936.3872075631784 79.26111623716947  3538.601736824644 -693.3566728596612 87.8604298358643  -2428.325207110539 98.68495603297544 -171.9546481725025  -4702.813421961955 195.3441209939496 -7.542194167310504  965.1263597654909 1037.694760734258 -68.21010072391228  3346.767971751977 -540.7811525281063 -112.1776317302412  -2673.881539430836 -101.4011059306958 159.9582119946013  2523.568145157682 797.1205687370065 137.1369931439584  -954.0960243792342 -883.9045481975155 -139.6801418015705  824.9690923590559 -1273.667660089229 1.583890286265009  2060.396313617592 345.0101147176874 -179.351293486110
[...]
<PointData  Vectors="Velocity"> 
<DataArray  type="Float64"  Name="Velocity"  NumberOfComponents="3" format="ascii">-1.0295217493340384e-05 8.4771373305061816e-07 -5.9217395704516211e-05  -1.2819043028790553e-05 -5.4626265853084002e-07 5.8327840487031256e-05  8.9584613386789144e-04 1.2584483193423522e-06 5.3745326931702658e-05  1.3479002055576872e-03 -5.6803348491702129e-07 3.4090144009126524e-05  1.4795466001562376e-03 -1.1236879882840290e-06 1.2968706522748563e-05  1.5082435078874084e-03 -9.7689273265728763e-07 6.0802663102314721e-06  1.5120577596898089e-03 -8.5653547207934931e-07 7.2626063468469005e-06  1.5080240192312916e-03 -9.8651700545105750e-07 8.5905635131065581e-06  1.4791632676306771e-03 -1.0403373427628114e-06 1.4309495039250504e-06  1.3502961447828905e-03 1.6012020662857813e-07 -2.1039772602915051e-05  8.9311737863635525e-04 9.8663562881348840e-07 -4.4349919321242997e-05  1.0447761607335938e-03 8.2898850418291673e-05 4.6403992127482914e-05  1.0620613760257481e-03 -6.3806200002006295e-05 -3.7754634555507442e-05  1.5028324255569436e-03 2.2118335240497089e-05 6.9829553749523412e-06  1.4043616722481148e-03 5.2287527161151336e-05 -1.0318130958176178e-05  1.4795058296057742e-03 -3.0666523944951736e-05 4.7051588779429798e-06  1.4801111935520475e-03 -3.0878426944572129e-05 9.8652176409434004e-06  1.1300876496809027e-03 -6.9348867183632317e-05 4.4029874725555757e-05  4.6776280848244482e-04 9.1003116586173545e-05 -5.2557601972081481e-05  1.4041141772581358e-03 4.7697823130669508e-05 2.5000042338898508e-05  1.1425276957152191e-03 1.3598116162301515e-04 3.6293572494865072e-05  1.3825741882354692e-03 9.3440480688712508e-05 1.9618653391958564e-05  1.1104009615871028e-03 1.9366662994402370e-04 2.6386427855745290e-05  1.3230132261055649e-03 1.3818138109154241e-04 1.3534520069275464e-05  9.9370598311360929e-04 2.5065919176096456e-04 1.4722630089185863e-05  1.2396642564411586e-03 1.7965301962346818e-04 4.5879985192930287e-06  7.8114607757976784e-04 2.9491002600688437e-04 -7.6643272378118216e-07  1.0626160159503701e-03 2.2148084002265137e-04 -1.0020864975125888e-05  4.3817274654673683e-04 3.1081835804566162e-04 -1.9469402135251208e-05  7.8203013282461575e-04 2.3297984367894067e-04 -2.8524155884475931e-05  -3.1458967556294514e-05 2.7753464293744007e-04 -3.6925570231237869e-05  1.3574881194610353e-03 1.1915335062944452e-04 -1.0707166738821810e-06  1.4062921677122889e-03 -4.7606514192774362e-05 -9.9425151060299473e-06  1.3747633399792301e-03 -9.5262857080564558e-05 -5.8636916788608785e-06  1.4394305670699813e-03 -6.6569123064348919e-05 4.3848862528804372e-06  3.2957167735205137e-04 2.0136357470556477e-04 -4.5141966552973435e-05  1.0517490623990374e-03 1.4547619603194655e-04 -3.0774981379476416e-05  1.1565007140011537e-03 -1.2607727852445081e-04 -2.5565212869748524e-05  1.0821652841830375e-03 -1.9603068265562000e-04 -1.8303683249039978e-05  1.5038549274817810e-03 2.1109038476058982e-05 7.1341720919205655e-06  1.4414460443041260e-03 7.4316959822889081e-05 6.8304854935053313e-06  1.4899281859194720e-03 2.9692507119373048e-05 1.0616894840536666e-05  4.5466389639818767e-04 -8.8922776670392035e-05 5.7460610445477426e-05  1.4043142471327459e-03 -4.7869324687683165e-05 2.5034314529769029e-05  1.3674243303881568e-03 -9.5718204390165146e-05 2.0113994394826015e-05  5.4535047693372895e-04 2.9642000685814479e-04 2.6934245365655768e-05  -3.9253077730674960e-04 3.1625784200097433e-04 -2.3286682207648981e-05  5.9274392615896079e-04 1.7717770947866453e-04 5.0182527727705416e-05  1.4367946767809650e-03 -6.8593166061306943e-05 1.0000967636435965e-05  1.2727492890566622e-03 -1.5819482318810230e-04 1.5676356831522399e-05  1.0652032666901338e-03 -1.9458381474905061e-04 3.1668170443948779e-05  8.5440551549605202e-04 -2.6998339801768907e-04 2.0940915292155625e-05  4.1829255181436033e-04 -2.8128634563054594e-04 3.4413240496337557e-05  1.1125189461231757e-04 -3.3184804630158787e-04 1.7710955138680941e-05  -4.3861543397308474e-04 -2.8855093573585631e-04 2.6858625286600956e-05  -6.6756405795554005e-04 -3.0272105160071935e-04 8.4346080500633969e-06  -1.0584461711232616e-03 -2.1723313922068877e-04 1.2011927821481600e-05  -1.4159503900624114e-04 -3.4643354655415436e-04 -2.2736199035642472e-06  -8.3279488621399605e-04 2.3296251378847175e-04 -3.3110162680812458e-05  -1.0164896830841988e-03 2.3352145455281861e-04 -1.7425100222863713e-05  -1.1546864546773772e-03 -2.0830859769655055e-04 -1.3270259399006791e-06  -1.3514287475222442e-03 -1.2112885080021694e-04 8.7163210295538985e-08  -1.3743664827891937e-03 -1.1102114142235522e-04 -7.3703698373121439e-06  -1.4659411092258401e-03 -4.7560606117456022e-05 -6.3210181148871065e-06  -1.4684882304854974e-03 -4.3298547843045625e-05 -8.0137750459673983e-06  -1.4363588969067737e-03 -5.8677182402778659e-05 -5.1482751761309277e-08  -1.3703875673109502e-03 -1.0652484520455683e-04 -1.4243477501756157e-05  -1.4939599107781894e-03 -1.5333844713909596e-05 -7.9294256296632704e-06  -1.4589772466281675e-03 -4.2332778364752156e-05 -1.1879730252065312e-05  -1.4672733470329842e-03 -1.5167188874789534e-05 -4.0794098849693197e-07  -1.4900781978000890e-03 1.2369835167036885e-05 -6.8476347604468736e-06  -1.3210848645889110e-03 -1.0503267231893220e-04 -2.6375259590593003e-05  -4.3388270519323954e-04 1.3699049816833493e-04 -5.5195627624033903e-05  -1.2632572638091233e-03 1.4590629083055965e-04 -2.2770359403123741e-05  -1.4291727801820826e-03 2.7711121591714080e-05 6.9308420267674953e-06  -1.4333775243800864e-03 6.1085981883892581e-05 1.6487390297970915e-06  -1.4986749655168902e-03 -8.7676736702071321e-06 -5.8927089318353522e-06  -8.7882710354365054e-04 -1.9738250289227070e-04 3.0002313624914787e-05  -1.4043192991705772e-03 -3.7603733002005582e-05 -2.3081709551193261e-05  6.0139183716627820e-04 -2.2059805742591994e-04 -3.8157522186349805e-05  -1.4811658533328291e-03 3.1825456891766914e-05 -7.3977167032583049e-06  -1.3326516187787763e-03 -1.4578370229110310e-05 2.1116773309511525e-05  -1.1373466788534943e-03 -1.0012887602687120e-04 -4.1571395957204211e-05  -1.2655170396673077e-03 9.9317285577089792e-05 2.0243534644565083e-05  -1.2479171100336925e-03 1.4897901071464628e-04 1.1391755145822978e-05  -1.1207532553968971e-03 -1.9118800632295324e-04 -2.5395384231484852e-05  -6.4319294050772151e-04 3.1222875363116930e-04 -7.1790663771974899e-06  -1.2057745431298620e-03 -1.4722489393375533e-05 -4.2995585111384607e-05  -1.4302375510604720e-03 1.4586247004955268e-05 -2.2922218135657688e-05  -8.8326394599362687e-04 1.9427455471996384e-04 2.9655617717294690e-05  -8.4943571551911276e-04 2.5219396413910937e-04 1.7281098161389098e-05  -8.2967408640785567e-04 1.2722736319204444e-04 4.1137533389803343e-05  1.1257922876920215e-03 -2.2570672286246319e-04 7.4471532439412683e-06  -1.3193674075626599e-03 1.4145011197514305e-04 -1.2312253811352100e-05  -1.4427310324388939e-03 6.6007037545788764e-05 -1.1109471266137616e-05  4.7997996170164834e-04 -2.9022713452281704e-04 -2.5964641648490370e-05  -1.9171514573586892e-04 -2.6844623788196487e-04 -3.9001857431725442e-05  -6.8399852404228128e-05 -2.0131988040225464e-04 -4.9220068479821124e-05  -7.9089813443754308e-04 -7.6367494394468367e-05 -5.3343818750087524e-05  -1.1014182868077955e-03 1.4042432269074996e-04 -3.7212970619037105e-05  6.5610341296187368e-04 -2.1134546992545948e-04 4.4155605764044089e-05  -1.1835129008422418e-03 1.9125125090226631e-04 2.7027812853780240e-06  -2.2075796364687885e-04 -1.7161039237248736e-04 4.9696994126427100e-05  -5.0705070455799701e-04 -7.0800815999654280e-05 5.2189975020071847e-05  -3.0748896466333291e-04 -3.2057756841960745e-04 -2.2871371496490134e-05  -6.4773718363713285e-04 4.7675108114719204e-05 -5.7101111808335771e-05  -2.0101394194127958e-04 2.8145347138612076e-04 3.3849101063610050e-05  -1.1553761769906496e-03 6.2117418063651597e-05 -4.2680903256215867e-05  -1.4020354641126141e-03 6.8754080143452299e-05 -2.2053874993368708e-05  -1.4833602413746609e-03 1.9963218379807098e-05 -8.2217492937544535e-06  -1.4916587753614691e-03 1.9846729994753576e-05 -6.5140797586811488e-06  -1.5035834054447465e-03 2.0307429849694575e-06 -8.4307549041277839e-06  -1.0153667490664963e-03 -1.1966124747005178e-04 3.4359837114005990e-05  -1.2901346157845716e-03 -1.0382937268504969e-04 1.7655043288592545e-05  -2.3152574586630525e-04 3.2477532358239907e-04 1.8987764029147684e-05  -1.0227127768472431e-04 -2.5374321558812045e-04 4.0325954731172969e-05  9.4802197812301179e-04 -2.5618813017138227e-04 -8.3818625625839874e-06  1.4884390250756248e-03 2.8478040454905787e-05 3.1922784082406454e-06  1.4298841873516089e-04 9.6889676547355519e-05 5.7460547665657300e-05  4.0988160247058499e-04 3.3197314115336667e-04 1.1549979208020752e-05  -8.2495444090501056e-04 -1.9363640812715058e-04 -4.1718378893180763e-05  1.4961737372459368e-03 -2.0848936690077964e-05 6.7349696839984860e-06  1.2893374945104770e-03 -1.5215292457452034e-04 -1.4939528887892496e-06  1.3770164022059567e-03 -1.1061105683097417e-04 7.1106851316832446e-06  -1.3967986505183797e-03 9.8893169018548767e-05 -7.0155658083316016e-07  -8.1168594358216643e-04 -2.8726402650809749e-04 -8.4477300706916003e-06  -1.1799324733297891e-03 -1.9648726105175637e-04 -1.3204878537549400e-05  -1.6319665866047669e-04 2.0898021952140886e-04 4.6493194165296231e-05  -6.9721257127586494e-04 3.4476400326087878e-05 4.9118486674931915e-05  -1.2206861725437745e-03 4.3165424414971047e-05 2.8757283570275899e-05  5.8748237334723600e-04 -3.2106884350032502e-04 6.0833256904764574e-06  6.7420534721188946e-05 3.4509202592437150e-04 -6.8674008382012020e-06  1.2229343561774527e-03 1.4888880642280699e-04 -1.4977895043701793e-05  1.4958695704426316e-03 -2.1085866620083437e-05 7.7257697004080340e-06  1.1259742691712669e-03 6.9397346562321280e-05 -3.2309127788416952e-05  -1.4459725077700448e-03 7.1572597581110936e-05 -7.2744975964320086e-06  -5.2139582370148172e-04 2.1656928589502115e-04 -4.5735649144313818e-05  1.1798169254994733e-03 -1.2015998678807902e-04 3.6847424129673563e-05  -1.4834244170559758e-03 -9.1367930449648435e-06 -9.8253344274816740e-06  6.1610571724138167e-04 2.4288033817662774e-04 3.9856815110645083e-05  7.0622247144820822e-04 -1.5176268912399401e-04 -4.3860828683996142e-05  3.6550875533665668e-04 -3.2949264257323943e-04 -1.1428685174930861e-05  -1.2976723402336552e-03 -1.3294526253387640e-04 9.4644659480780925e-06  1.4512712198035934e-03 6.4896029750869150e-05 1.0844267865420854e-05  -4.4284100946720402e-05 -8.8300483919980590e-05 -5.7498485534047650e-05  1.4181416426654069e-03 7.5409436196842883e-05 -2.7154353863788322e-06  -1.4933201172306375e-03 -1.8208334471780543e-05 -7.5086479597796079e-06  -1.1167664207454115e-03 2.1727066053131081e-04 -6.1089756287407366e-06  -7.8244202605888926e-04 2.8787227950569219e-04 5.0694360156604231e-06  1.4644980152563058e-03 -4.8082634364624583e-05 7.1657261264091660e-06  -6.5377831595680091e-04 -1.5605094564025371e-04 -5.0195039424820650e-05  7.9676636938433689e-04 -1.3788073200088951e-04 5.0850735542990471e-05  -9.5289852688429627e-04 -2.1690242453851294e-05 4.1935588898979702e-05  -8.9096881285808695e-04 -2.5835947643890314e-04 -2.0998943139871876e-05  1.4590765510164385e-03 5.7716712637693337e-05 3.4861068218978274e-06  -1.8396257608961891e-04 3.4389259088000735e-04 5.0662085534283470e-06  -1.3774292735015221e-03 -4.9379697710810069e-05 1.4437029597898667e-05  -1.1289534773008939e-03 -5.7374413173867295e-05 3.2958375815099098e-05  -7.3740132911650255e-04 -2.5192183531040700e-04 -3.2785132718548532e-05  -1.3337713978524186e-03 1.3699174754521010e-04 -4.8939979140205786e-06  -1.1443504688477059e-05 2.3303758338668889e-08 -2.8527220262238229e-07  -8.9340265251486892e-04 1.1480042852712538e-04 -6.1633273259985221e-06  1.2206051346411854e-03 -3.7369073160326166e-05 6.5048754657763485e-06  -5.8151277745392509e-04 -1.3186030222064001e-04 -1.5419948960728932e-05  9.9457907820052808e-04 8.2451050289463268e-05 -4.3972569957886641e-06  -7.1460566971491470e-04 -1.3206500838746419e-05 2.0297068398179673e-05  -1.2375149039617972e-03 -1.8624415745377052e-05 -6.0466857537257551e-06  2.8782416688280488e-04 -1.5726280774710103e-04 1.2682140666420210e-05  9.5134678202216409e-04 6.6229742496668958e-05 2.0144539230276664e-05  -7.7908316447454148e-04 1.2572048669594978e-05 -2.6757329062834491e-05  7.3770175074228757e-04 -1.0707237700097645e-04 -1.5310622321485028e-05  -2.9172007131125880e-04 1.3190595822034813e-04 2.0455403385138026e-05  2.4861468104184139e-04 1.9433475412457816e-04 9.5646525043705843e-07  6.1101809842332121e-04 -4.7633977701975094e-05 3.0926987699190748e-05  -2.4587486858937153e-04 1.5023119312235599e-04 -2.3802802133219967e-05  5.4526668902693748e-04 1.8086235407463074e-05 -2.7139322862572993e-05  -9.2999468054918424e-04 -1.2707780342787118e-04 4.9432216376702970e-06  -1.2328570564873324e-03 5.0229118078318814e-05 5.3996053682713690e-06  1.2563206929660337e-03 -5.2222053875492508e-06 -8.1235651309078329e-06  -2.1749210374703588e-04 -9.1070678225198910e-05 -3.4147907348666894e-05  2.9869112153823094e-04 -2.0641455824096350e-04 -7.1738362467871962e-06  1.1106489003075020e-03 -9.4389971312418402e-05 1.9673733032122730e-05  1.0886902952712775e-03 -1.3549506721596296e-04 4.2490128088023886e-06  -1.2187082856581028e-03 -5.5882233056032939e-05 -1.9932910251601821e-05  1.3497393362807591e-03 3.8667747400777147e-05 8.4435356683611358e-06  -3.7144750541342504e-04 -1.3343077114812775e-04 2.6527823237493805e-05  -1.3289788580261178e-03 4.3391499575976763e-05 -1.3795056151387433e-05  1.3310972591460556e-03 -8.2115018221496742e-06 1.7985825760205106e-05  1.0722726834990169e-03 1.3534209151639027e-04 9.4620481927545764e-06  -1.2869027283440384e-03 -4.0946406066003255e-05 6.2068862044099218e-06  3.9489622622581379e-04 6.6258604408833653e-05 3.6862094698318916e-05  -5.7318094152674726e-04 2.0298510311742501e-04 6.4711200484471314e-06  -5.5080454191915962e-04 2.1501509328586955e-04 -1.1998323307590382e-05  6.4067193026853288e-04 1.8668041785107112e-04 -1.4004788472104198e-05  -1.1793272388865728e-03 -1.2293591322385687e-04 -1.1156783029357037e-05  5.5626113992911989e-04 1.8595441761558160e-04 2.1257708378990815e-05  -3.9892920586273361e-04 -2.2360387157012549e-04 2.0811861184783241e-06  -9.2533027266911041e-04 7.3009624483806414e-05 2.3456052965246603e-05  1.3037905209180725e-03 -7.0803079759689704e-05 -2.4192019417552686e-06  2.1729842687971752e-04 -1.0182920370498302e-04 -3.7755351599886004e-06  6.5329284530907456e-04 -5.0044217505441295e-05 1.2788224618948128e-05  </DataArray> 
</PointData> 
</Piece>
</UnstructuredGrid>
</VTKFile>