<?xml version="1.0"?>
<VTKFile type="UnstructuredGrid"  version="0.1"  >
<UnstructuredGrid>
<Piece  NumberOfPoints="201" NumberOfCells="657">
<Points>
<DataArray  type="Float64"  NumberOfComponents="3"  format="ascii">-0.8765641563212496 -1.26117508568846 416.8101609110582  0.518759286849626 1.19657754292486 -416.9010005607751  892.9507706696933 -3.989520823297445 -414.0554235172004  1689.649225528983 -8.091966356345893 -371.1971523210706  2311.184257997244 -10.31983042798189 -288.2073472808291  2704.272283063509 -11.09889932796345 -169.4499672700021  2838.686940035041 -11.3696810434166 -31.77855241255558  2704.225820312963 -11.4102452422904 106.0212629061413  2310.892291011911 -10.94323730069197 227.4909849867109  1688.977458513012 -9.445149559977489 321.1475921132676  891.9362414603805 -5.963804641984268 384.7102271770165  1131.979977192772 -829.6671766470664 -361.4645858443774  1117.244603742157 633.5377148915219 339.3479626319577  2706.394589930229 -737.4704389693546 -81.0812958970039  1965.143508202156 -806.9556657479753 285.1030377631047  2461.723212518524 725.3813774032271 138.6775055134462  2452.044469691738 725.5018774382813 -237.2306345335251  1254.586979296621 731.5361664702037 -406.8549725399099  438.4253870877306 -742.9265930846466 416.6606538173132  1953.184138875853 -743.7992602920189 -302.6722106542958  1364.599346910889 -1448.452678380834 -283.6047614429783  2013.99206421024 -1417.315674550018 -204.3604494635451  1384.159335545779 -2018.314142685161 -173.1226501237868  1940.322335454643 -1892.503109280234 -82.01011997688711  1221.361407235283 -2394.639003243688 -46.55296775750874  1733.361608556755 -2150.956034556167 50.21331587832758  915.3995503384886 -2555.50847478942 86.86375698010173  1325.574276334655 -2226.201049336061 186.5069116360232  484.2000823468043 -2490.15970390742 212.6961798831949  855.1840831203588 -2040.646982261267 301.576524200879  -23.47210625634029 -2186.956055704918 317.5255777093978  2026.151628702375 -1752.702916921511 143.3428146294506  1945.749365484637 724.6034892805884 248.5023397208869  1960.468796720514 1408.108410977442 160.2528774674892  2367.330361370735 1344.504708220403 42.98101607364482  325.8676104772795 -1634.393819277516 383.3478680834332  1171.307577240411 -1436.415654962888 346.5731523290341  1351.181654345585 1352.629025279241 255.3475925739618  1292.786638563694 1974.987869449534 156.4487130650997  2711.593203898859 -719.8925433587293 51.42493216369406  2393.235533025434 -1473.890107544339 13.13764230489968  2474.535546827485 -747.5439539569128 -197.3110162026154  431.3922843164605 738.0106747086583 -430.4132163524584  1927.135941684232 707.406642150537 -346.0245817959847  1945.806905088581 1401.206208479311 -285.144619749791  599.2818796588896 -2417.462927110204 -127.0463319841962  -402.4393962787667 -2515.028968062879 215.5924070482799  588.882329802331 -1485.114370944796 -312.2959796049878  2351.333684252088 1361.170762971191 -163.1209106113605  1754.744634174379 1972.405257681617 -192.0695547293561  1248.548368908762 1927.307612423284 -305.4293395617835  978.7664456077501 2395.764596162372 -203.1440530161634  428.697473040774 2258.147062768559 -296.8113102862089  117.3838935371441 2597.475671394187 -184.8046318876424  -458.710168074691 2326.846186300097 -268.6830651806899  -748.0965749202578 2554.322115441011 -142.6813625481103  -1312.529743854469 2188.475671892507 -203.4473890504641  -152.3735741429219 2699.983100142918 -50.92169285665101  -902.2061660232108 -2096.499992612035 305.8071684093465  -1243.800818629353 -2309.98859519676 189.1729027724535  -1535.915804216448 2270.688843843173 -78.9128626916163  -2026.456834569322 1781.826317721375 -132.5370025841119  -2155.259024769558 1776.409061748629 -4.634386183656192  -2526.629511455535 1177.041404523285 -69.49833748711411  -2560.698431632018 1117.777374776356 71.77567753983237  -2252.129543969918 1118.634524074693 -202.6925152705039  -2076.642033527507 1646.715565128955 130.7015822345754  -2672.163166300576 495.4703770676354 -111.0096352086776  -2372.504574197485 922.6044981256932 202.9996483713293  -2285.117200575859 322.9660504782205 -237.0149761678144  -2554.160983392569 -341.0298353118999 -147.0490865515085  -1773.960309005663 1386.402729217798 250.0660290641085  -392.748235840383 -1132.386558774591 421.9037637787973  -1708.091247920459 -1786.767992247012 262.3048370688165  -2053.703474212182 -468.2374665572461 -251.3518336469377  -2206.427096611329 -1109.469987624388 -155.0203959013608  -2731.609218232787 318.5835858867689 137.2936699849866  -964.7094654494899 1820.188887989294 -325.9691187914535  -1962.565044147178 598.8713912073149 313.3829078986046  607.1878628872805 1831.345180546447 245.1772521301706  -2624.144767438413 -904.068411834484 -25.48512708428349  -1673.263073153954 201.0958738736329 -327.6908944750801  -1308.558295895689 1059.469562228858 331.9883540984621  -1595.625290307842 -1200.346883622603 -247.0974235619419  -1660.621456856617 -1784.402937287154 -141.3622322782982  -1414.647697066909 2024.936652727598 166.7020856874177  -705.0301557396383 -2607.179213320985 95.99942090817559  -1376.912900429794 184.2083696716481 387.5697750051855  -2020.362549460159 -246.050174048631 339.6201105770351  -958.6650826173856 -1797.889727397179 -226.806904435597  -955.6266504448938 -2284.662244679583 -115.0056362521376  -832.267010381155 -1141.848229397399 -316.739947131533  1429.429744993321 2322.133196868133 -81.28450551123106  -1927.996712801484 -1911.889183005525 145.0763598436404  -2328.150318109048 -1288.492697038734 195.8247573416757  499.9733718251769 2349.866631051757 139.2169735524832  -194.7502236164551 2127.782825752623 215.1235553957827  -72.73356767073801 1609.046959600681 298.166098658353  -785.9540490302533 685.9646433301217 382.4088866071758  -1287.062885167091 -1467.985195295286 366.1900770023994  667.2107091061901 1791.455259571982 -368.6528467320297  -1582.631895745472 -2154.697350599401 -28.72569945411847  -219.6607215275298 1383.372490589613 -404.5052865262118  -476.8165254950972 597.8485665499188 -415.4214384350548  -326.7166410348109 2530.684991735488 93.98861320590909  -608.6297541228366 -418.5013771104058 428.3466361156433  -196.3902099616963 -2224.453748370282 -187.5381757341686  -1310.233950759724 -667.4453709671619 404.6077856197351  -2005.143969016752 -1069.831423991265 312.4914646049746  -2492.744802663659 -506.9101847110599 239.2803169787346  -2718.134128225021 -659.4342360901359 108.5608635162142  -2825.777475274187 -75.83611717414456 -5.418130788410129  -1109.680846361076 1179.317961767912 -368.1530275432077  -1672.780842012566 1301.437815808549 -299.531047359312  -231.9186496414177 -2547.048135418246 -81.41313016290124  -106.3773703992363 2011.229157934832 -345.8578096102358  1122.944264784428 2373.104712542232 47.44652840218126  2458.292677497566 -715.2248442975366 179.7620638362688  148.7358323118337 -775.8602681518834 -378.0485087984887  458.6414773400238 -2639.857151386448 -13.69690995549665  -880.6802341493004 1744.001043755088 269.0244462480646  2711.409588660001 670.0671700608141 -113.8178057210523  1806.549209976412 1953.704077851846 48.15520837566271  2131.23378884501 1767.650973376918 -68.75332869252189  -2161.942476171042 -1599.508463887867 -50.13482715998749  -950.0515730622523 2547.179379845516 -11.78670427043834  -1587.136776036391 2201.389019056125 50.15215993277033  -147.1952532692148 -1666.810909310865 -286.0007468797475  -671.0832266454463 -300.8989162688491 -383.6079098925258  -1410.752212166825 -480.9654464575709 -326.2744174502129  645.0286495691304 2623.535274039431 -89.80319514790672  86.64247753935679 -2686.551642771148 109.7535967934604  1582.941559271563 -1723.75823113939 262.7604825049841  2715.849985046138 678.7439686717944 13.97726937607743  1262.096844892677 -739.7525141403689 368.7405437808774  -2394.223708994467 -1431.773844634614 70.38482270369617  -504.8259617659292 -1795.428822651514 373.1673145730916  1390.103278042406 1312.005491204168 -370.7374709481202  -2444.20343292984 227.261958700438 250.0468431258209  650.8314483253256 -2027.803952390057 -227.877178215112  697.475816054431 1307.47385466602 307.4938348099937  393.9187617397876 2614.122028264582 28.48608485191335  -1779.828775633751 1709.543178612033 -227.2411484706273  2382.742196560686 -1315.337354795405 -114.5986743210102  -48.75948318378083 712.0903371448397 381.1604690150612  2163.846590582736 -1282.894034253101 205.4217414741759  -2758.770441465117 656.3395226272322 6.308676397971122  -1457.036429319872 -2308.262528126606 73.1781445059393  -885.957106772755 -2522.54654357951 -5.772136796258506  2541.235896260344 1184.519942087995 -58.30286762574633  -649.3105057377833 1348.826607678508 327.1357434239728  793.3504222063277 1218.618764023113 -411.3292311932838  -973.7537793350151 207.896110711183 -385.8411042563431  -1049.088701401 2374.037744263059 97.81990611133816  2423.028103679081 -1224.624399209765 122.3064694182965  -183.5270865278598 -2683.011193348976 18.58474103820829  -1841.538169349605 718.3167116885996 -306.3843201188258  -1264.629580263422 611.769771895997 -369.7044147454723  -807.1069954053202 2187.317883088083 184.970643188638  -1987.366862966733 -1908.558314297672 40.86693279884553  0.01223944479712377 0.05019859992749454 -0.02429254232690544  -913.2892706379259 -1065.870852511588 58.87883190135763  1387.324618438295 410.2056872965827 -36.13588442132065  -560.2513134674115 1129.149897861111 66.55673653034935  1040.718468506528 -804.4087051089797 93.63227834262983  -678.1243434805232 121.6545904103538 -178.9524791599302  -1430.452745274443 220.2473863896869 15.58793473947996  266.7623839221543 1272.208484531507 -125.0812765967822  970.7023594140373 -633.2718554078809 -121.7421140575342  -753.1850231293763 -115.7039681880999 197.213923967251  715.8449008137169 943.6269640669283 105.6336714226514  -260.2503538332207 -1080.360063703781 -120.7938073298839  245.1745715416233 -1560.649515727823 44.12058933330034  573.338930797884 413.0091516769234 -
[...]
<PointData  Vectors="Tidal Force"> 
<DataArray  type="Float64"  Name="Tidal Force"  NumberOfComponents="3" format="ascii">9.5007757882654293e-14 -6.3376057677752094e-14 2.4650544902080959e-14  -9.5299789925326371e-14 6.3570861133728777e-14 -2.4726315019607841e-14  6.9185797949516701e-13 -4.6151211427865928e-13 1.7950824826824290e-13  1.4035254658849244e-12 -9.3623839632107075e-13 3.6415623617539302e-13  1.9695225021891304e-12 -1.3137934677980401e-12 5.1100882662483929e-13  2.3422478654522339e-12 -1.5624243653853645e-12 6.0771549045969886e-13  2.4918266777088800e-12 -1.6622026955366288e-12 6.4652494465697081e-13  2.4051661690459363e-12 -1.6043947699755439e-12 6.2404016228086684e-13  2.0871676105795828e-12 -1.3922700400382523e-12 5.4153281847054617e-13  1.5615488713755049e-12 -1.0416497930743279e-12 4.0515670960448434e-13  8.7423685734460029e-13 -5.8317011926037266e-13 2.2682794949907669e-13  1.3972467769674742e-12 -9.3205012201757195e-13 3.6252717864856495e-13  6.8720493561525823e-13 -4.5840824588009707e-13 1.7830097772898114e-13  2.7896896268329920e-12 -1.8608957271843270e-12 7.2380793886381256e-13  2.2628930250568036e-12 -1.5094897729479636e-12 5.8712622385705913e-13  1.7681518071645884e-12 -1.1794667447293085e-12 4.5876154208417350e-13  1.6739130669943041e-12 -1.1166036694856283e-12 4.3431052515824670e-13  5.8028227039158276e-13 -3.8708420719849571e-13 1.5055901203180315e-13  9.1494612409309000e-13 -6.1032572102352423e-13 2.3739030388232488e-13  2.0814291809410764e-12 -1.3884421521283102e-12 5.4004393566114280e-13  1.9816807695657119e-12 -1.3219037850152030e-12 5.1416338918454205e-13  2.5517516528651937e-12 -1.7021763647030470e-12 6.6207297277348831e-13  2.3578813141366136e-12 -1.5728528437286504e-12 6.1177171741797144e-13  2.7933351601656825e-12 -1.8633275236597696e-12 7.2475380249760662e-13  2.4642637200813453e-12 -1.6438164960166948e-12 6.3937350839772472e-13  2.7931502065386565e-12 -1.8632041481376509e-12 7.2470581475650626e-13  2.3202627198397363e-12 -1.5477589118745857e-12 6.0201126344521611e-13  2.5102003603936659e-12 -1.6744590796418292e-12 6.5129214788470417e-13  1.9320304551107448e-12 -1.2887839507748981e-12 5.0128120636967891e-13  2.0146803903876579e-12 -1.3439165755405698e-12 5.2272541246508041e-13  1.3325665467163168e-12 -8.8890440324299986e-13 3.4574536045165131e-13  2.8381572115151378e-12 -1.8932266074279265e-12 7.3638325270269178e-13  1.3405730918862435e-12 -8.9424526466102757e-13 3.4782272450718017e-13  9.3311538434800559e-13 -6.2244574270954109e-13 2.4210446802778944e-13  1.3008859372871060e-12 -8.6777147499379452e-13 3.3752556553527609e-13  1.3306245336325476e-12 -8.8760896026075483e-13 3.4524148917009755e-13  1.9485546015252742e-12 -1.2998065796589130e-12 5.0556853218640864e-13  4.5232843089480500e-13 -3.0173107296230597e-13 1.1736033503739709e-13  1.4032139650394075e-14 -9.3603060596802912e-15 3.6407541471669771e-15  2.8141570448082030e-12 -1.8772170100709080e-12 7.3015621187727378e-13  2.9675225392181633e-12 -1.9795212917013367e-12 7.6994815193181116e-13  2.5654722916700708e-12 -1.7113288804096856e-12 6.6563290546195994e-13  -1.5158896615037235e-13 1.0111922727323714e-13 -3.9331005172915543e-14  1.1987866679682310e-12 -7.9966494006007479e-13 3.1103506961258382e-13  8.2276620982364387e-13 -5.4883601014447985e-13 2.1347346628496265e-13  1.9130581067384815e-12 -1.2761282195849454e-12 4.9635867440101538e-13  1.1687901099850957e-12 -7.7965537840700173e-13 3.0325221570728035e-13  1.3155216098256891e-12 -8.7753437486249324e-13 3.4132291125866526e-13  1.2301119717455241e-12 -8.2056085743784194e-13 3.1916267755263474e-13  3.4171156033132727e-13 -2.2794277056259947e-13 8.8659877353503959e-14  -1.0216254292812058e-13 6.8148742349181168e-14 -2.6506912781489713e-14  -5.9008481262394249e-13 3.9362310987078019e-13 -1.5310236231012234e-13  -1.0137697673333263e-12 6.7624721052603846e-13 -2.6303091165342382e-13  -1.4603500341882022e-12 9.7414390212986967e-13 -3.7889983821083334e-13  -1.8267334349246105e-12 1.2185443179982340e-12 -4.7396102766006726e-13  -2.1853779865302081e-12 1.4577824422832154e-12 -5.6701430899483860e-13  -2.4805007016539139e-12 1.6546475681689992e-12 -6.4358632693221978e-13  -1.7267416635136857e-12 1.1518436146718125e-12 -4.4801733941886073e-13  5.0541498905188031e-13 -3.3714309453460321e-13 1.3113407956849328e-13  3.0396155161524810e-13 -2.0276117715334504e-13 7.8865326827861549e-14  -2.6964486628085048e-12 1.7986982304152340e-12 -6.9961580317276928e-13  -2.8530265096878582e-12 1.9031453500614062e-12 -7.4024121452010246e-13  -2.9338220414938042e-12 1.9570409728816257e-12 -7.6120428036920822e-13  -2.9236203888031256e-12 1.9502358388195066e-12 -7.5855737759693560e-13  -2.8866296633979938e-12 1.9255607343957912e-12 -7.4895982937686311e-13  -2.6786882474133299e-12 1.7868509335675845e-12 -6.9500771719184232e-13  -2.7579506109952477e-12 1.8397238382439265e-12 -7.1557298992393198e-13  -2.6616627793255469e-12 1.7754938920841430e-12 -6.9059031934002471e-13  -2.5771195029719759e-12 1.7190982915788894e-12 -6.6865487031599080e-13  -2.2494400822910427e-12 1.5005158270759701e-12 -5.8363574710965352e-13  -2.0763332217964488e-12 1.3850428318215169e-12 -5.3872174711029860e-13  -2.3124411282968358e-12 1.5425414259786765e-12 -5.9998188713078777e-13  4.1452488297090244e-13 -2.7651376558612256e-13 1.0755189332354142e-13  -3.9345963829282224e-13 2.6246194296167015e-13 -1.0208634217926856e-13  -1.5861428365692063e-12 1.0580554907918322e-12 -4.1153781633554045e-13  -1.3227786060860904e-12 8.8237524074351412e-13 -3.4320579867920845e-13  -2.5536790643468297e-12 1.7034620675124933e-12 -6.6257305554916579e-13  -1.9872683159821708e-12 1.3256310244728907e-12 -5.1561312409988981e-13  -2.0023371693840512e-12 1.3356828828012880e-12 -5.1952286216427718e-13  -4.8353692185502934e-13 3.2254906895768235e-13 -1.2545763493043722e-13  -1.7803538793475710e-12 1.1876062824648679e-12 -4.6192747016150524e-13  -1.6614822363778954e-12 1.1083115357095537e-12 -4.3108524382218551e-13  -1.6935960266704035e-12 1.1297334224184580e-12 -4.3941743107955898e-13  -7.5424575821134855e-13 5.0312862592381424e-13 -1.9569527104257046e-13  -4.4516391144791636e-13 2.9695189484234435e-13 -1.1550144148740413e-13  -2.3899999716298324e-12 1.5942779771618206e-12 -6.2010516751063697e-13  9.2983975826936665e-13 -6.2026069727833579e-13 2.4125457987619616e-13  -1.2283354434859357e-12 8.1937580308065030e-13 -3.1870174267101281e-13  -1.5522865884220888e-12 1.0354712767956005e-12 -4.0275353404358996e-13  1.5955170651389809e-13 -1.0643086817286841e-13 4.1397003710815358e-14  4.7281447868825238e-13 -3.1539653539907128e-13 1.2267560878190830e-13  -1.3419845800924917e-13 8.9518681469824828e-14 -3.4818894674189346e-14  -1.2351008524745054e-13 8.2388874981077723e-14 -3.2045708372705238e-14  -5.3998671570354493e-13 3.6020457699797786e-13 -1.4010399864838470e-13  -1.2448644571011761e-12 8.3040167868893133e-13 -3.2299033132303465e-13  -9.0554269231904887e-13 6.0405304974107468e-13 -2.3495050609795913e-13  -1.3680873775066658e-12 9.1259899693829880e-13 -3.5496153241350512e-13  -9.3817727308765515e-13 6.2582233594647049e-13 -2.4341781673158882e-13  -1.0045074843799100e-12 6.7006869424731099e-13 -2.6062773609252935e-13  -1.8680803049662677e-13 1.2461252406402679e-13 -4.8468881346658248e-14  -5.4740432958741609e-13 3.6515258477978600e-13 -1.4202855963356768e-13  -1.3414978600213716e-13 8.9486214227162045e-14 -3.4806266321268200e-14  -1.0951931680310174e-12 7.3056166077660799e-13 -2.8415688325521237e-13  -8.6340733576217687e-13 5.7594615776790357e-13 -2.2401814097412124e-13  -1.7476073529626071e-12 1.1657623216013479e-12 -4.5343111431615698e-13  -1.9158275439431547e-13 1.2779756056924577e-13 -4.9707722768222875e-14  1.0875954677208316e-12 -7.2549352419694746e-13 2.8218559736422121e-13  -6.6719100629079760e-13 4.4505771569716082e-13 -1.7310819900780509e-13  -1.0626997360830353e-12 7.0888652957493405e-13 -2.7572619484505395e-13  -1.8372027836544049e-12 1.2255280218949984e-12 -4.7667738637340621e-13  -1.9756113702788439e-12 1.3178551198551539e-12 -5.1258863357527484e-13  -2.4378980938287666e-12 1.6262289906662651e-12 -6.3253272962033877e-13  -1.7487900827354287e-12 1.1665512755980536e-12 -4.5373798329214085e-13  -2.2990952639467214e-12 1.5336389080405414e-12 -5.9651919275980897e-13  1.2695703679112350e-12 -8.4688205106455994e-13 3.2940048326580943e-13  -1.3500982036780649e-12 9.0059910405013407e-13 -3.5029409317384887e-13  -3.9311406704232688e-13 2.6223142553876438e-13 -1.0199668087352839e-13  2.6182181457773620e-12 -1.7465136312833432e-12 6.7931825152260805e-13  4.9872745527468942e-13 -3.3268209539273682e-13 1.2939894387712750e-13  1.9457024219085097e-12 -1.2979039992388739e-12 5.0482851070522934e-13  -1.7332296420617176e-12 1.1561714981187616e-12 -4.4970069886324976e-13  1.9622703731294402e-12 -1.3089558486412853e-12 5.0912720203958826e-13  4.5289302617730433e-13 -3.0210769297719429e-13 1.1750682393128240e-13  8.2030340626377601e-13 -5.4719316766574305e-13 2.1283447162715257e-13  -9.7283660935212135e-13 6.4894225944663811e-13 -2.5241046684673839e-13  -2.3286975786722487e-12 1.5533854850280460e-12 -6.0419975700645117e-13  -2.6714117823500838e-12 1.7819970807894987e-12 -6.9311977843013085e-13  7.8169677022252522e-13 -5.2144015078562361e-13 2.0281766209009793e-13  -5.0040177231934269e-13 3.3379896854033659e-13 -1.2983335921761501e-13  -1.0312527522879626e-12 6.8790944409051016e-13 -2.6756701602270023e-13  -9.9069436876151993e-13 6.6085449077961313e-13 -2.5704380953350759e-13  1.6745701390903164e-12 -1.1170419772615758e-12 4.3448100792268224e-13  2.4592213001445410e-12 -1.6404528896768304e-12 6.3806521103509382e-13  1.9902129724124477e-12 -1.3275952926539887e-12 5.1637713945161929e-13  1.6252945990901115e-12 -1.0841721407897745e-12 4.2169606342531184e-13  -1.2475657534958929e-12 8.3220361065671595e-13 -3.2369120491015840e-13  6.9332300690923885e-13 -4.6248937828280896e-13 1.7988836169116945e-13  3.6758073211136356e-13 -2.4519911003786853e-13 9.5371846931094152e-14  -2.2220912814948010e-12 1.4822724834237524e-12 -5.7653987560326055e-13  1.7070538366368753e-12 -1.1387106150147172e-12 4.4290917066225639e-13  -8.3248600964391341e-14 5.5531971850423752e-14 -2.1599534836331591e-14  -1.1786899962316801e-12 7.8625921556461195e-13 -3.0582082269144188e-13  -2.6156774670061150e-12 1.7448188412163462e-12 -6.7865905150012406e-13  2.8363076752448809e-12 -1.8919928522067405e-12 7.3590337529168805e-13  -3.7289571528799570e-13 2.4874453293664439e-13 -9.6750863070083520e-14  2.6980012998353773e-12 -1.7997339354561768e-12 7.0001864763095383e-13  -2.8052208643024364e-12 1.8712560243180211e-12 -7.2783764628095084e-13  8.9283929846281275e-14 -5.9557909940608832e-14 2.3165450598553945e-14  6.9821941082470752e-13 -4.6575558289468487e-13 1.8115877399503696e-13  1.5242077075191668e-12 -1.0167409245034409e-12 3.9546823724337956e-13  -1.2853644342190843e-12 8.5741767130863307e-13 -3.3349838378872203e-13  -1.1091376980686097e-13 7.3986352579949518e-14 -2.8777490636712131e-14  -1.0645687411561372e-12 7.1013327169318495e-13 -2.7621112359722607e-13  -2.2892294481051154e-12 1.5270577979527953e-12 -5.9395942562269221e-13  2.8725391173390656e-12 -1.9161614676449162e-12 7.4530392120619076e-13  1.4145010034886840e-12 -9.4355975954152849e-13 3.6700392975911196e-13  -2.1072934855204017e-12 1.4056952448793130e-12 -5.4675464240344096e-13  -1.5527927772960535e-12 1.0358089361192932e-12 -4.0288486891396986e-13  -1.9474984189709433e-12 1.2991020404931306e-12 -5.0529449692801976e-13  -6.1781325507565761e-13 4.1211969801576758e-13 -1.6029673496930041e-13  -2.4336003556007760e-17 1.6233621331391416e-17 -6.3141764605740152e-18  -1.6418528159096197e-13 1.0952174967436533e-13 -4.2599222908908651e-14  9.6949770966423700e-13 -6.4671500659997125e-13 2.5154416183634759e-13  -1.1379125886732331e-12 7.5905815966173243e-13 -2.9524078861410405e-13  1.4060710118568831e-12 -9.3793643311233465e-13 3.6481669903316911e-13  -7.0736001376034389e-13 4.7185293106675549e-13 -1.8353037867362854e-13  -1.3812434210290438e-12 9.2137489263004889e-13 -3.5837497620809144e-13  -5.3933937800895515e-13 3.5977276267056286e-13 -1.3993604155453345e-13  1.1952676818540322e-12 -7.9731755841555570e-13 3.1012203969638486e-13  -5.4849944974743640e-13 3.6588309773969866e-13 -1.4231269757429351e-13  9.9933365002390264e-14 -6.6661742635225705e-14 2.5928534217701135e-14  3.7663859263490964e-13 -2.5124126389741236e-13 9.7721983409719790e-14  1.1392413344673914e-12 -7.5994451538642632e-13 2.9558554264885136e-13  2.0890998892619305e-13 -1.3935589895719647e-13 5.4203416408151573e-14  5.6421077364319501e-13 -3.7636352367124485e-13 1.4638912989724006e-13  5.8238490109882159e-13 -3.8848679208152800e-13 1.5110455687799673e-13  -1.5806282981634152e-12 1.0543769521981388e-12 -4.1010702394957443e-13  -9.4344358425717525e-13 6.2933529160258363e-13 -2.4478420451765706e-13  1.2709039809061043e-12 -8.4777165351352021e-13 3.2974650013584890e-13  -5.5973781618960090e-13 3.7337978407053508e-13 -1.4522858426378656e-13  -7.1877846662882267e-13 4.7946974619544430e-13 -1.8649299026892985e-13  4.6417033022515848e-13 -3.0963035310216102e-13 1.2043281330311241e-13  2.5733863600264846e-13 -1.7166080540666537e-13 6.6768627564693864e-14  -1.5862061101784523e-12 1.0580976982072936e-12 -4.1155423319433793e-13  1.8311285171668250e-12 -1.2214761100106833e-12 4.7510136792884699e-13  -1.0107423684909593e-12 6.7422774803241345e-13 -2.6224542810172843e-13  -1.1032337836059222e-12 7.3592524926449957e-13 -2.8624308715778605e-13  1.3461509039012804e-12 -8.9796601067018236e-13 3.4926993375194372e-13  1.8665471367422391e-12 -1.2451025224963901e-12 4.8429102034956630e-13  -1.7012423989877007e-12 1.1348340262407808e-12 -4.4140134532347129e-13  5.8166455539356390e-13 -3.8800627689011881e-13 1.5091765725476377e-13  5.1222420284685135e-13 -3.4168526178312655e-13 1.3290078614216186e-13  6.1243013108906886e-13 -4.0852882097726382e-13 1.5890003913622142e-13  1.5457061330605443e-12 -1.0310817055875922e-12 4.0104618072865070e-13  -2.0333023003087152e-12 1.3563385425833506e-12 -5.2755702029271176e-13  1.3722829045197217e-12 -9.1539767325583070e-13 3.5605009643530810e-13  -1.4370994163907925e-12 9.5863430030985849e-13 -3.7286727402040096e-13  -4.7313571393519167e-13 3.1561081920064569e-13 -1.2275895591118788e-13  9.2565396565773358e-13 -6.1746851440933646e-13 2.4016854152497745e-13  -3.0312926029363266e-13 2.0220598730381149e-13 -7.8649381992909941e-14  2.5745544881971726e-13 -1.7173872678905609e-13 6.6798935611704619e-14  </DataArray> 
</PointData> 
</Piece>
</UnstructuredGrid>
</VTKFile>