<?xml version="1.0"?>
<VTKFile type="UnstructuredGrid"  version="0.1"  >
<UnstructuredGrid>
<Piece  NumberOfPoints="201" NumberOfCells="657">
<Points>
<DataArray  type="Float64"  NumberOfComponents="3"  format="ascii">-0.002295786926279418 0.000481786777418602 454.1772709695165  -0.0005938737209484163 -0.0003263486110618231 -454.1783989756037  850.3707771080772 0.0005981437805197 -431.9681074388451  1617.425082249752 0.0004037703072686642 -367.494397827256  2226.05848785072 -0.0008548487802358051 -267.041416334268  2616.764274884938 -0.0006957274259935163 -140.4052459950406  2751.381837430667 -0.0001411709680897337 0.0004434894548124531  2616.765054277742 -0.0002478635935285782 140.4053687495511  2226.058527121856 -0.0005778984980405389 267.0409871883915  1617.424603232105 0.0008122158234236374 367.4949421449821  850.3715476896236 0.0003841775926306258 431.9676827600566  1077.303078213591 -799.9024790219996 -394.898071624829  1070.299281763793 621.3382849572796 404.7066123851448  2618.893825809345 -712.1423505463077 -67.35605813211868  1885.727613901456 -777.0518669193049 302.9048266559867  2382.089111183253 720.2623068432544 191.0400592895672  2372.188593037465 720.2547166700543 -194.3709958194369  1202.934458185016 715.9774268974995 -389.7064250269949  414.5166676088987 -715.9566133335763 431.9578009819088  1873.515410163076 -716.0070396871281 -309.3108271916695  1304.100714930593 -1404.795116078416 -319.6288758403298  1937.558858278306 -1376.970979040632 -220.1655161482985  1328.518961058504 -1968.306282059495 -211.4506334257794  1871.837147034543 -1847.294556326363 -104.1409720586637  1174.495684903607 -2343.390656288738 -88.45325183798194  1672.350883157054 -2103.100227110698 22.3768492025198  878.4085591293235 -2503.64066833276 40.36823189083088  1274.170645283949 -2175.116833197628 153.1479407238215  458.9862163223659 -2437.325796892311 162.8446057598341  815.4563615938087 -1988.104664797232 269.0509573540251  -31.68526310081617 -2135.537666560926 269.5632719769636  1954.075296726445 -1708.778282983514 129.2534306083398  1873.518330657392 716.0080093795524 309.3111138135212  1898.205192023484 1386.052614181001 227.7108809408737  2298.704039785002 1328.218576603575 103.0730963615453  305.0592794313913 -1586.751575731161 360.5523630428046  1117.107285519621 -1391.467172653947 339.9791768948354  1303.973341101084 1324.677106161796 329.5133310003928  1256.392812585052 1937.882835310007 230.8120443308131  2623.909573070097 -694.7878447877672 67.34777460707143  2313.403673043 -1435.749629734569 7.799293326830155  2387.367001552219 -720.9056908979748 -189.1633412582283  414.5157104059589 715.9575923351229 -431.9576433509691  1854.873271134384 698.0437126235964 -313.5471941653142  1883.680611685855 1378.59314313397 -232.2798874125513  569.9842160958435 -2364.601512755451 -183.4072623305901  -398.7690775658212 -2466.277378605759 154.1631771364105  556.3658038993508 -1440.819617398193 -370.1962674461951  2282.997919039729 1344.05246796163 -106.5174885140444  1707.195312843164 1941.619486145049 -128.1997478562678  1212.246120247791 1889.606061448528 -248.3116714246038  957.0155983332309 2353.263649164686 -138.2028913607269  422.8168210461019 2209.698614466504 -241.6198361624046  123.7642194113136 2547.656471873186 -125.4070711898866  -433.4361229486116 2273.537819542533 -223.0392729316162  -715.1712098602393 2502.10352578144 -94.58114992923251  -1260.44610783741 2136.927819305465 -170.9638932088888  -137.5554529183905 2649.81920700441 8.375485265127102  -878.7404365218622 -2052.964335851017 248.5722099616355  -1213.729121863984 -2270.356054591351 123.0665084467486  -1479.892521933109 2220.72236613869 -46.20267856035665  -1954.939915025797 1737.141258691448 -117.2573375628234  -2082.374450161719 1733.300788904837 10.49308980893378  -2442.771833730663 1143.620924497767 -73.30158042214019  -2476.256012658751 1085.523400348884 68.39380188508621  -2170.187524974024 1083.924645413106 -208.7153907451805  -2002.537749260859 1603.90639064899 147.1830875218481  -2584.351411653856 474.0869967301143 -133.118288496981  -2287.658763402523 892.3486709332687 200.9564804787993  -2199.95678334713 304.3343946534194 -267.8521691926677  -2470.327779451962 -344.3149022312215 -191.1924250608833  -1701.879544617818 1345.069402171913 272.7569999251252  -380.0970074580978 -1099.41882941314 408.5841189971288  -1657.67075019188 -1755.769855510157 202.7780480320687  -1976.923602877439 -466.4091824561689 -305.7352779896114  -2135.697266381945 -1094.722500142311 -216.6139521322314  -2643.664392114792 300.8736048665725 114.8846267376731  -919.8182025100227 1769.718555894321 -302.4894645481784  -1882.467416870755 574.3636658728063 316.4100498854898  591.7503861347935 1788.209293387513 321.0595603425882  -2547.168174810969 -896.8157143161026 -77.00822513812425  -1601.748232161174 186.2828868162306 -367.9824126752417  -1247.886901638254 1023.425734681809 364.9687331366891  -1539.097865452971 -1177.619068846765 -318.0432193468982  -1611.46287633495 -1753.421590077866 -213.2559858245541  -1358.070866347132 1974.4759547203 204.5356071581619  -693.3785047506058 -2562.264704486942 29.22775191703183  -1314.260228281961 172.3190617664384 397.9789743347656  -1941.84469843217 -248.9620535914671 319.0279870931396  -930.1850352284143 -1758.390663603311 -303.5599568889269  -933.2007078386675 -2241.698829146126 -188.0138011992731  -801.6043686567741 -1113.455273262408 -390.4779359869968  1394.928881805714 2286.049615893614 -12.81519277986575  -1875.987587990338 -1883.286494746987 80.53389324804766  -2258.92801116636 -1271.921101971648 140.9256101537886  492.7125192490341 2302.332857260089 210.6912034724927  -177.8708152968184 2076.443707113308 281.2844261131605  -61.62296970465354 1564.60673787896 366.7053619045328  -745.4485252152174 661.0439846048343 422.321369117614  -1243.065544387834 -1435.835653166868 322.20227626098  648.7979997004937 1748.222410248426 -324.4910344947693  -1542.083701946477 -2119.966965426259 -99.14397254770169  -203.766110960213 1341.124508265346 -390.4689999590396  -451.5563238724877 575.025321186216 -437.0855955923188  -306.1347902429528 2478.610618043772 154.1385975696878  -581.4092303434895 -406.9981409010542 438.4347743692311  -198.8197706372587 -2174.389509976737 -258.2801981106953  -1256.195012501875 -654.0850287742206 388.3153803063362  -1936.442755169129 -1053.052923915639 267.6989085040706  -2410.721414960581 -506.1705032268133 201.1290672010909  -2637.588038340834 -657.1211451581685 63.75401323739413  -2739.547114634724 -85.47201114219773 -39.47056816588503  -1056.842954942712 1139.489202795432 -371.2677487973122  -1602.823178231213 1260.45146501129 -299.6299778830727  -233.9672101847636 -2497.455439706606 -148.5714458782082  -93.59935488444769 1960.513088158263 -305.7043280808634  1097.086787214619 2332.845282630854 118.5836269218717  2371.400471203896 -689.0560632037106 197.9167139897916  137.4958470988854 -751.3683991291643 -435.001906572862  434.87047838646 -2588.189910428824 -69.93274236802927  -837.8686523259404 1694.917507635498 320.9607686059501  2630.087312975389 667.6933440328276 -68.79226655730004  1757.817204696643 1923.989118479015 116.8364936800601  2073.666851858439 1743.798216007164 -5.192243457120575  -2100.593432682243 -1577.092364793499 -114.8576641998924  -911.5237621211198 2495.209414966678 35.3489572334444  -1529.302211090347 2151.896907871541 83.07661260312035  -149.2336863608307 -1622.192306201405 -358.5993582705983  -641.2528139952267 -296.0852354355746 -438.7698755931129  -1351.815174472153 -475.2077510257528 -387.1901044816136  635.5747187254552 2578.260337857239 -23.19721817244319  74.47530031887813 -2636.189006400185 50.45710562737278  1519.317725586797 -1676.560532645569 247.1169436482623  2634.736662850341 676.2351902725602 61.05640621304496  1203.609379441909 -710.8237177683915 389.9262267235348  -2327.0507325707 -1414.300104431851 11.21760695146493  -492.5108294221882 -1750.632377451487 331.5188174681952  1340.643824062791 1284.246126726613 -330.1927588991907  -2357.459119816256 211.5131943648341 231.4695883170254  617.6699124301646 -1975.866809889354 -285.5364995110319  674.0080695457641 1274.15554148414 382.5690017853659  391.9268353871955 2566.686494494553 95.42728501122883  -1711.201855241605 1663.479009956041 -213.1971652583289  2300.962030346379 -1279.086139408122 -118.7311432679476  -42.11169311116744 690.1069676722902 438.4963560334967  2084.149962295842 -1244.848654995295 206.2892103302692  -2671.359758386051 632.4533213388245 -10.33489727875039  -1422.064340341174 -2271.535260024969 4.380344181291189  -868.4387756684773 -2479.273678708973 -75.25190968693124  2468.271042871871 1172.293937292959 -3.1614297248252  -614.1829497832745 1307.221697399653 382.0443199369458  764.2770993039301 1187.120210161283 -386.1346248013509  -927.7459043594889 194.920138272581 -426.3085996200608  -1005.888610735836 2321.650561048027 144.2803549828377  2340.161743741971 -1189.644073169038 124.9390722672776  -187.3986131455069 -2633.994891308997 -45.5936831048944  -1764.682231080873 689.820537509807 -327.9343931940766  -1206.096662211973 586.2202069356916 -395.7452070309192  -769.3734903848325 2134.707609438682 238.0536701849616  -1934.578408374156 -1881.040226846301 -25.40990103487707  0.000827279535799168 -9.798998098612096e-05 -0.0001415020411036401  -877.4627285219108 -1038.201241169394 12.58073859715684  1326.846820570308 404.8830564521768 -2.076194500062002  -528.5814299177475 1091.247529232211 100.0616573650258  989.0034043598023 -773.5778891298363 91.03553475541466  -644.3538481732237 113.2317040585396 -202.2375164954017  -1364.679291653117 206.0704657070215 0.166925780840811  260.7207249985975 1234.340528113837 -86.88605938886469  921.7249721391852 -608.2711929349766 -136.0702450270684  -716.9820172037225 -115.5748410853122 196.1519428475212  687.5135073409842 918.4475490528555 158.1625390591209  -253.8769671726411 -1048.115511315199 -171.8032247372686  227.0746181862732 -1513.764077173686 0.8399
[...]
<PointData  Vectors="Coriolis"> 
<DataArray  type="Float64"  Name="Coriolis"  NumberOfComponents="3" format="ascii">1.6791881144668838e-12 0.0000000000000000e+00 -2.2620712297240126e-14  -1.6680805822340491e-12 0.0000000000000000e+00 -5.8596711331067360e-15  -1.4015032130576777e-12 0.0000000000000000e+00 5.6545652798584638e-12  -7.9463354960359595e-13 0.0000000000000000e+00 1.0003907106563796e-11  -1.7263498662538133e-13 0.0000000000000000e+00 1.2427408819392367e-11  3.9830670062867366e-14 0.0000000000000000e+00 1.3383390694732450e-11  -4.3665071208606573e-15 0.0000000000000000e+00 1.3609626231589964e-11  -4.1041918436694044e-14 0.0000000000000000e+00 1.3391061966106332e-11  1.7685799697209961e-13 0.0000000000000000e+00 1.2427793383109034e-11  7.8927733939031088e-13 0.0000000000000000e+00 9.9991931251628024e-12  1.4056792968083601e-12 0.0000000000000000e+00 5.6621495361595581e-12  -1.1129167724088275e-12 0.0000000000000000e+00 6.7730030547899861e-12  1.1840488452306762e-12 0.0000000000000000e+00 6.8662565448196638e-12  2.6410935109074693e-14 0.0000000000000000e+00 1.2896555436616514e-11  4.2375419572243346e-13 0.0000000000000000e+00 1.0746019648238302e-11  3.4133821036773738e-14 0.0000000000000000e+00 1.2388047246689322e-11  -4.5686788243692137e-14 0.0000000000000000e+00 1.2367896657091640e-11  -1.0441355605354988e-12 0.0000000000000000e+00 7.5308747045831150e-12  1.5030202652301259e-12 0.0000000000000000e+00 2.7300419768035525e-12  -4.5395124859407070e-13 0.0000000000000000e+00 1.0754505577532240e-11  -6.9768264992578985e-13 0.0000000000000000e+00 7.3205629741659497e-12  -2.2926060693252091e-13 0.0000000000000000e+00 9.9847083835096824e-12  -3.6784134584566278e-13 0.0000000000000000e+00 6.4366248906517614e-12  -9.5231261353593896e-14 0.0000000000000000e+00 8.6226082609494673e-12  -1.4485157325994161e-13 0.0000000000000000e+00 5.0780627656275629e-12  2.0915652841314663e-14 0.0000000000000000e+00 7.3384906650109162e-12  7.4345772783277850e-14 0.0000000000000000e+00 3.6383451914824786e-12  2.4916286631415884e-13 0.0000000000000000e+00 5.7891219906396394e-12  3.6156609350730535e-13 0.0000000000000000e+00 2.0309515464459834e-12  6.3947726697609770e-13 0.0000000000000000e+00 4.1479865415291713e-12  7.0336685749131382e-13 0.0000000000000000e+00 -1.5445213980254381e-13  1.0666260333264256e-13 0.0000000000000000e+00 9.2589661744632623e-12  4.5112263071713358e-13 0.0000000000000000e+00 1.0783271045715284e-11  2.4886071655409308e-13 0.0000000000000000e+00 9.8124085768051017e-12  2.2876380643894276e-14 0.0000000000000000e+00 1.1070530084611522e-11  1.1025749567756594e-12 0.0000000000000000e+00 1.7547155620778458e-12  8.5661862810887912e-13 0.0000000000000000e+00 6.4544133147306343e-12  7.3883380466670055e-13 0.0000000000000000e+00 7.4237520810063803e-12  4.4059243523614297e-13 0.0000000000000000e+00 6.1902890071642691e-12  -2.9117574619975972e-14 0.0000000000000000e+00 1.2940423919839068e-11  -4.4828932606096743e-15 0.0000000000000000e+00 1.0897213022341432e-11  -4.1961452730029062e-14 0.0000000000000000e+00 1.2438350592589634e-11  -1.5045733166837465e-12 0.0000000000000000e+00 2.7205937175203542e-12  -4.7358192457532019e-13 0.0000000000000000e+00 1.0715420895906738e-11  -2.6201060464488036e-13 0.0000000000000000e+00 9.7597817467268419e-12  -4.0930240335770711e-13 0.0000000000000000e+00 2.5754942019752035e-12  3.4129206648217155e-13 0.0000000000000000e+00 -1.7903712960862288e-12  -1.1281679772623207e-12 0.0000000000000000e+00 3.3091927433692543e-12  -2.9967926229680448e-14 0.0000000000000000e+00 1.1006974920598490e-11  -1.4276193637164620e-13 0.0000000000000000e+00 7.8665664336020229e-12  -4.9942828878988875e-13 0.0000000000000000e+00 6.1130670275167417e-12  -2.6249758330361815e-13 0.0000000000000000e+00 4.2315652769812430e-12  -5.9322543774891086e-13 0.0000000000000000e+00 2.0509462665943483e-12  -2.7514227556790617e-13 0.0000000000000000e+00 5.0060325864359530e-13  -5.4164233121805857e-13 0.0000000000000000e+00 -2.0639297531775726e-12  -1.8694967563439453e-13 0.0000000000000000e+00 -3.0508834844330914e-12  -2.8831523853611461e-13 0.0000000000000000e+00 -5.8604913146410077e-12  1.3276060398782698e-14 0.0000000000000000e+00 -5.9617665005387829e-13  5.6005016999093027e-13 0.0000000000000000e+00 -4.3700021787012712e-12  2.0230792898713719e-13 0.0000000000000000e+00 -5.3785443092958613e-12  -5.9766797074686848e-14 0.0000000000000000e+00 -6.4690725902458554e-12  -8.5276407500324857e-14 0.0000000000000000e+00 -9.1706027860554455e-12  7.3376044106776086e-15 0.0000000000000000e+00 -9.5068628198648229e-12  6.2741835863548077e-15 0.0000000000000000e+00 -1.1819703179809175e-11  2.7716801697310750e-15 0.0000000000000000e+00 -1.1991207422153024e-11  -1.2759758086973451e-13 0.0000000000000000e+00 -1.1225153378839490e-11  1.0228010203710176e-13 0.0000000000000000e+00 -9.6370314167641276e-12  3.4642071287778601e-14 0.0000000000000000e+00 -1.3072115902184132e-11  8.8600907363353615e-14 0.0000000000000000e+00 -1.1882142554077953e-11  -1.8849057841036256e-13 0.0000000000000000e+00 -1.2247680295691803e-11  -4.9378067577292681e-15 0.0000000000000000e+00 -1.2924663530763898e-11  4.2057060525971182e-13 0.0000000000000000e+00 -9.1722815945363584e-12  1.3826980146120892e-12 0.0000000000000000e+00 -2.4169564638330519e-12  2.8137504245590549e-13 0.0000000000000000e+00 -8.1840805507056912e-12  -3.8032971937252212e-13 0.0000000000000000e+00 -1.1379930889125686e-11  -1.4616445109571697e-13 0.0000000000000000e+00 -1.1100591238227593e-11  -4.4901238385870366e-14 0.0000000000000000e+00 -1.3311356073746799e-11  -7.3875412121601404e-13 0.0000000000000000e+00 -4.9382351274160833e-12  4.4896250627330138e-13 0.0000000000000000e+00 -1.0931933022376469e-11  8.7606774755657707e-13 0.0000000000000000e+00 3.2485595389486455e-12  2.8841371170675042e-14 0.0000000000000000e+00 -1.2418841543546701e-11  -7.8398712956753961e-13 0.0000000000000000e+00 -9.8670322141977812e-12  9.2105362864263227e-13 0.0000000000000000e+00 -7.5129037237068196e-12  -6.0806458765080280e-13 0.0000000000000000e+00 -8.7205748473259034e-12  -3.0701860655755154e-13 0.0000000000000000e+00 -8.0114238026085976e-12  3.4559994784425714e-13 0.0000000000000000e+00 -6.5494467175950564e-12  5.5354654859690454e-14 0.0000000000000000e+00 -2.8679208786573660e-12  1.0652642152855863e-12 0.0000000000000000e+00 -8.3983428635849047e-12  4.4372943996592855e-13 0.0000000000000000e+00 -1.1363640376149836e-11  -7.3837999405424204e-13 0.0000000000000000e+00 -5.0114469760796531e-12  -3.7343180560288620e-13 0.0000000000000000e+00 -4.3090399972789805e-12  -1.1767546842021015e-12 0.0000000000000000e+00 -4.9703430636706663e-12  -2.1165704739509732e-14 0.0000000000000000e+00 6.0252771761439931e-12  7.3367958206682045e-14 0.0000000000000000e+00 -8.5949627559186242e-12  4.2070217881747803e-14 0.0000000000000000e+00 -1.1095434607040322e-11  4.8757018114060962e-13 0.0000000000000000e+00 2.2930540272864982e-12  7.6134434239412329e-13 0.0000000000000000e+00 -9.4595961224041687e-13  1.1470045501143622e-12 0.0000000000000000e+00 -3.6593384116505234e-13  1.3601422424887182e-12 0.0000000000000000e+00 -4.8653091489646695e-12  7.2506734855886159e-13 0.0000000000000000e+00 -6.9848171709386015e-12  -8.8455433811279097e-13 0.0000000000000000e+00 3.5708961321628742e-12  -1.2410487858181876e-13 0.0000000000000000e+00 -6.9123393536675710e-12  -1.2832817181653194e-12 0.0000000000000000e+00 -1.2336313014438916e-12  -1.5257291680846177e-12 0.0000000000000000e+00 -3.0071119242996914e-12  3.4408918752034518e-13 0.0000000000000000e+00 -1.3687374221025628e-12  1.5216879449145695e-12 0.0000000000000000e+00 -3.8797233261506719e-12  -6.6564326804399130e-13 0.0000000000000000e+00 -9.7643678808088737e-13  1.0152326305977935e-12 0.0000000000000000e+00 -7.8395938713750388e-12  3.2757539437168623e-13 0.0000000000000000e+00 -1.0550624294166509e-11  1.9563261070258616e-14 0.0000000000000000e+00 -1.2656649050131854e-11  -2.9726406163858660e-14 0.0000000000000000e+00 -1.2927949170476904e-11  3.0665102006101923e-14 0.0000000000000000e+00 -1.3534153376604776e-11  -9.9676760878575552e-13 0.0000000000000000e+00 -6.4019579774313823e-12  -5.2982511921574538e-13 0.0000000000000000e+00 -8.9120642687108876e-12  -3.3039589101794450e-13 0.0000000000000000e+00 -1.0606649695044732e-12  -8.5460798822514304e-13 0.0000000000000000e+00 -5.0419763535955693e-13  2.0812659091224154e-13 0.0000000000000000e+00 4.8132613149540542e-12  5.7655882071758840e-14 0.0000000000000000e+00 1.2417783844548666e-11  -1.5604191018915080e-12 0.0000000000000000e+00 8.7189417145572648e-13  -1.4494354431416647e-13 0.0000000000000000e+00 1.8013968975353271e-12  8.3327291005942037e-13 0.0000000000000000e+00 -4.6044284267359269e-12  2.8626713443271765e-14 0.0000000000000000e+00 1.2951103888220625e-11  1.1854056532609234e-13 0.0000000000000000e+00 8.0724703162471605e-12  -2.5007583931906966e-15 0.0000000000000000e+00 9.4619051735754294e-12  -7.0351547755142671e-14 0.0000000000000000e+00 -9.9789027082165197e-12  6.1074596175298706e-14 0.0000000000000000e+00 -3.8285805501947527e-12  1.0480165479069328e-13 0.0000000000000000e+00 -6.7700420592300016e-12  -1.1107357651844710e-12 0.0000000000000000e+00 -8.6433055403067182e-13  -1.4958895633798849e-12 0.0000000000000000e+00 -4.2874452927871167e-12  -9.7599824091390613e-13 0.0000000000000000e+00 -8.4934444949143474e-12  -4.2414732082996850e-14 0.0000000000000000e+00 2.5972904223342614e-12  1.0576109508296470e-13 0.0000000000000000e+00 2.6786066671814413e-13  4.0533353231432661e-13 0.0000000000000000e+00 7.7864030938446528e-12  -2.5458171708866396e-14 0.0000000000000000e+00 1.2944836416233269e-11  1.0407442728971052e-12 0.0000000000000000e+00 7.5123732294228080e-12  1.9685366418250861e-16 0.0000000000000000e+00 -1.0950673964910806e-11  9.4689250641118294e-13 0.0000000000000000e+00 -2.7430056924719710e-12  -7.4006932605458431e-13 0.0000000000000000e+00 7.6579675426711528e-12  7.6823565735030630e-14 0.0000000000000000e+00 -1.2721352085231332e-11  -7.3350933499839004e-13 0.0000000000000000e+00 3.1904844977591477e-12  1.1713824314834525e-12 0.0000000000000000e+00 4.0870128747931394e-12  1.9868122814053803e-13 0.0000000000000000e+00 1.6166572743064195e-12  -2.7572444824338761e-13 0.0000000000000000e+00 -8.5780269269709293e-12  -3.7942039560325212e-14 0.0000000000000000e+00 1.1230307361351190e-11  1.5896268418373692e-12 0.0000000000000000e+00 -2.9055316512771195e-13  1.6015491537494610e-13 0.0000000000000000e+00 1.0706491025167539e-11  7.9004926665771982e-15 0.0000000000000000e+00 -1.3050856606861006e-11  1.1637877509743931e-14 0.0000000000000000e+00 -6.1247584234974936e-12  -1.3490549660126128e-13 0.0000000000000000e+00 -3.6608985715795067e-12  2.6330681992830820e-15 0.0000000000000000e+00 1.1804969163325875e-11  1.1703554497719107e-12 0.0000000000000000e+00 -3.7192809353361739e-12  -1.1631013164254229e-12 0.0000000000000000e+00 4.6886957997986571e-12  -1.3369539304164173e-12 0.0000000000000000e+00 -6.1201547565513983e-12  2.6392053102850700e-13 0.0000000000000000e+00 -4.5056365319888173e-12  2.5590057210875918e-14 0.0000000000000000e+00 1.1506813032934189e-11  -9.5512059268426814e-14 0.0000000000000000e+00 -8.2320549437615584e-13  -5.6427401830675415e-13 0.0000000000000000e+00 -1.0351339897154765e-11  -1.0672951537114792e-12 0.0000000000000000e+00 -7.6044673392593412e-12  5.3891626917155268e-13 0.0000000000000000e+00 -3.7643602097435568e-12  -1.9570196672834853e-14 0.0000000000000000e+00 -8.7575462381654327e-12  1.3935373190025022e-15 0.0000000000000000e+00 8.1292999372034492e-15  4.6118986656219955e-14 0.0000000000000000e+00 -5.5410730344884564e-12  -8.1644706786454878e-15 0.0000000000000000e+00 8.5214043350245264e-12  3.2640608496110753e-13 0.0000000000000000e+00 -3.3843735390009847e-12  2.7311004976312646e-13 0.0000000000000000e+00 6.3758283623653410e-12  -6.9729341788528617e-13 0.0000000000000000e+00 -4.4239579225944316e-12  4.2436623037186773e-15 0.0000000000000000e+00 -8.8009223004724095e-12  -2.9292061187844998e-13 0.0000000000000000e+00 1.6642883003649904e-12  -4.3262036552005114e-13 0.0000000000000000e+00 6.0683710777303178e-12  6.6486219652843638e-13 0.0000000000000000e+00 -4.8660311313069564e-12  5.1420623822563575e-13 0.0000000000000000e+00 4.4623075493699452e-12  -5.8935605148068891e-13 0.0000000000000000e+00 -1.6331015774602077e-12  4.4331775425253146e-15 0.0000000000000000e+00 1.3600175823980800e-12  -7.8726157094938188e-13 0.0000000000000000e+00 3.7013076967363399e-12  5.8024017404784611e-13 0.0000000000000000e+00 -1.3636686779488751e-12  8.6415486954736181e-13 0.0000000000000000e+00 3.2970223799332173e-12  -2.4878928720916214e-13 0.0000000000000000e+00 -5.7640733001585460e-12  -3.2017250789908252e-13 0.0000000000000000e+00 -8.6491008808875510e-12  4.2238920358321618e-13 0.0000000000000000e+00 8.9382710749147275e-12  9.1467560207885753e-13 0.0000000000000000e+00 -1.2687215226619869e-12  1.9957579179819309e-13 0.0000000000000000e+00 1.6650703777207397e-12  -3.6727048879959514e-13 0.0000000000000000e+00 7.3042151877701769e-12  3.5190155389368304e-14 0.0000000000000000e+00 6.8779221972120951e-12  3.9307830311253171e-13 0.0000000000000000e+00 -8.5262863300072646e-12  -5.2357118759212778e-14 0.0000000000000000e+00 1.0168234608204048e-11  -7.6559222711618331e-13 0.0000000000000000e+00 -2.1363485138560938e-12  2.1130169983606543e-13 0.0000000000000000e+00 -9.8245913798060339e-12  -3.3620986797732613e-13 0.0000000000000000e+00 9.8536898650143711e-12  -9.7504919226220991e-14 0.0000000000000000e+00 6.8114775362994448e-12  -3.5448929420200951e-13 0.0000000000000000e+00 -9.3170846348144200e-12  -9.8839447924503128e-13 0.0000000000000000e+00 2.3108457341425894e-12  -2.2156458777268154e-13 0.0000000000000000e+00 -3.0947215724491867e-12  2.0501556534880557e-13 0.0000000000000000e+00 -2.9315661836807981e-12  4.0857335097180248e-13 0.0000000000000000e+00 3.6338289474937799e-12  1.2682107318694944e-13 0.0000000000000000e+00 -7.7900772259651225e-12  -4.4064752373629954e-13 0.0000000000000000e+00 3.1060048401195492e-12  -9.5904489529454567e-14 0.0000000000000000e+00 -2.1124990042364301e-12  -7.8850720620962602e-13 0.0000000000000000e+00 -5.8669754950470763e-12  2.3849470747378218e-13 0.0000000000000000e+00 9.3458096115408513e-12  1.2943081065782288e-13 0.0000000000000000e+00 1.3005746592643849e-12  -2.7044088195029968e-13 0.0000000000000000e+00 3.9742132031180768e-12  </DataArray> 
</PointData> 
</Piece>
</UnstructuredGrid>
</VTKFile>