<?xml version="1.0"?>
<VTKFile type="UnstructuredGrid"  version="0.1"  >
<UnstructuredGrid>
<Piece  NumberOfPoints="201" NumberOfCells="657">
<Points>
<DataArray  type="Float64"  NumberOfComponents="3"  format="ascii">-1.368509534970002 -0.374216445508553 604.5278614820165  -0.578560892408131 -0.09222532033861243 -605.5734165592423  1681.290893791189 -0.02540046591404349 -590.4286119086837  3150.890400053884 -0.2218606066185796 -531.0622554914049  4259.519741258698 -0.2298323648070156 -415.8922421715218  4942.134761580262 -0.3312194766155573 -228.752826668138  5172.603326683357 -0.8517887149222729 0.2958221659841666  4942.393458828617 -1.065465996827104 228.5596923612694  4259.486201521025 -0.5542625863889576 415.1669737309038  3150.554924867635 -0.4498927601157183 531.2081923314751  1681.497630492898 0.6074669314594497 589.0243218236113  2110.600838136351 -1527.393160883863 -559.0925115384274  2103.175816351031 1188.515153830136 566.4613193619501  4929.540576712699 -1313.236791044231 -111.4506950936299  3628.793911675131 -1459.621270954879 460.7359705502387  4518.089490384429 1336.985106843238 307.5792847265934  4501.331177845597 1336.019440573444 -312.153444401449  2353.598859060105 1365.65910960069 -554.2205386391108  819.4235821551948 -1378.598215318312 589.678248686344  3608.483184335304 -1346.763916262699 -467.8527306797631  2515.573436849472 -2646.539341712072 -479.3734198634764  3687.409058726213 -2561.330486896408 -348.6024043021801  2524.058297683855 -3657.485165467634 -336.0074545887086  3527.478187494044 -3406.321529154235 -170.851960907787  2211.35630260038 -4319.462372873451 -144.9913399155704  3143.439148071148 -3869.742407723286 36.96429394852001  1650.167639061458 -4609.475383735971 66.07803779355406  2407.742348501548 -4022.36530156256 247.9810493793333  867.6272024096922 -4511.691572867075 261.772325229762  1560.322153610485 -3718.944189846004 415.4697729505422  -60.88431502475375 -3995.245290104106 415.7285510646061  3689.211753202773 -3155.774014206792 210.057263384842  3609.983720575794 1345.829419495786 467.9162011195544  3615.36763278425 2579.567940529934 360.0205587522451  4332.758176928282 2449.738762251096 168.894652167686  592.4118167463915 -3011.992089684091 521.3701742900686  2165.091542457639 -2630.946036232207 500.5125394323272  2519.864074796323 2498.671480723072 491.2516189528245  2392.145364391847 3607.819067127458 362.6701262768499  4939.524347932827 -1281.479452298372 111.4079393066664  4351.367344665287 -2643.437404190296 12.93745086373328  4529.07330581641 -1338.253549211964 -303.9474940146109  818.7555244530827 1378.934086940437 -588.2258877031942  3575.958332154708 1314.033957160788 -473.424691090923  3588.48084779207 2566.826161201994 -366.398901688612  1079.354800778355 -4384.132788588893 -293.2362810534986  -756.093041321978 -4564.396517120656 248.6131391121372  1084.489133805955 -2738.444253329205 -532.287076569319  4304.158559501125 2480.700738436516 -174.6928169159676  3221.547145356742 3584.255065255215 -209.0926616181915  2313.922332485769 3523.9421366669 -387.4522489977575  1806.952623366402 4347.848008776855 -223.766641270559  806.1948479179606 4118.472149682164 -377.6270580227157  231.9444849237289 4703.607094121854 -203.4076906349473  -825.8972453193882 4230.619753411458 -350.5394617257149  -1348.632308543934 4613.21148759384 -154.679544664657  -2387.902348165942 3958.898161981881 -275.4781079558189  -260.4704546920686 4875.946692071602 14.05291162045891  -1678.276646347671 -3831.776876850442 387.022762198864  -2289.960071946552 -4193.972510676495 200.0899797683967  -2785.316723796016 4090.42667885852 -76.37892136753763  -3687.44307425358 3209.677289252026 -191.8210204061278  -3914.253649935038 3192.496811497048 17.27753607253833  -4599.468734169428 2108.257306625856 -121.0284611112729  -4660.89789118674 2001.0438482703 112.0782562579682  -4122.27870924511 2015.191200150001 -332.7748818801052  -3784.150487904089 2967.773773573145 239.4645891281433  -4876.779805345911 878.7497232921091 -217.8074693629536  -4342.000201769669 1657.855091173683 321.1850130144358  -4208.253539798566 571.5885480449507 -416.6004313701081  -4681.12100856387 -639.7766172675921 -307.1679302793477  -3260.427308973204 2517.926155358126 421.2194239449886  -748.1065743289079 -2105.916887551426 567.2009018658958  -3148.22976387964 -3263.111035029166 322.4800648095912  -3803.820410625996 -876.7603607267116 -463.8699735326913  -4059.266114671379 -2037.239586436343 -344.2513614674548  -4982.810640835213 558.3913829694285 188.5819759156019  -1770.370035400346 3325.135284684034 -458.5945914025339  -3629.411578964857 1082.565740380172 477.4324919236021  1142.485588363772 3368.751815710791 480.5325845559589  -4791.470180851978 -1654.35667044252 -127.5897915373773  -3118.177509658538 354.1754142626907 -533.0567668027255  -2428.503199687175 1945.174868798013 528.768019852281  -2967.431175874236 -2219.123973483036 -478.5146896719373  -3063.516057522424 -3260.639369993585 -337.8545918597265  -2579.574470050067 3670.007986083916 325.2993810260581  -1304.298534059341 -4717.797706839804 48.32727957503967  -2576.688457813485 329.1902125549567 560.2677087069244  -3745.226544132401 -468.1629213066158 480.0492984837126  -1790.084864017691 -3304.99318801929 -458.9298492143404  -1769.682761257997 -4158.897016888297 -300.8626933502815  -1569.714957485864 -2125.708613423471 -553.8579626211484  2623.667300386743 4205.52089535452 -21.12006175628607  -3533.271751200181 -3473.915366444417 132.0144422984359  -4265.780767589099 -2352.971988418923 229.7104866929736  935.6512899326503 4278.196078123404 333.3699806545916  -343.2101763312173 3889.5947144194 429.5006459651132  -120.516163797558 2970.364469274445 530.3691470959043  -1470.545214843271 1270.81922360226 582.755647288006  -2398.915107495389 -2707.886566040421 482.4086664414491  1252.723854784646 3296.440816486846 -483.789884933904  -2905.859575200517 -3913.465498777399 -162.1464949728503  -398.3586616261121 2558.966478025044 -552.1942952910576  -894.2364396768356 1108.442356679758 -593.9003251053463  -580.433991643893 4585.292857049314 248.0791296577914  -1151.31598643317 -787.1642846894159 592.9400205975517  -380.1680748967954 -4063.351561694968 -400.1389790042919  -2455.541933164868 -1247.503298838882 553.232531059713  -3705.535361198413 -1971.675124586442 414.2484529284417  -4572.787650771349 -940.3575426130602 322.9494001856423  -4958.597683672683 -1211.869262826586 105.7016840922974  -5148.457646974628 -156.6285184090835 -65.76648701845471  -2060.952423818809 2166.51252765407 -535.7617007502793  -3083.060830271264 2367.986368733109 -455.8986562426563  -444.2742043402355 -4620.125229686735 -240.0146782904235  -180.8320178366129 3684.11297522806 -461.8057022377255  2068.900910491323 4304.481902297422 192.6941605226543  4501.914017013921 -1278.999078737913 316.4366137455747  269.9303326858872 -1447.51627063474 -590.1391533650282  817.7593678601341 -4768.892214891079 -114.8352768124098  -1617.278218581643 3195.20632599875 479.6143802902083  4950.206095889451 1230.750312953337 -113.8783605452638  3314.829410727444 3549.740930384864 191.1374649902887  3898.439855179667 3208.366960681742 -8.58369591920682  -3960.999706801853 -2913.123793198404 -187.2594042084794  -1715.29061691369 4594.513984135445 57.89621760579522  -2880.050590643905 3967.529977015265 136.1651724244419  -290.1208446546765 -3077.905918392651 -520.0291472541478  -1269.697094546098 -570.5892771943662 -594.9392457531274  -2643.507297496232 -904.9768055580582 -551.3036857045042  1193.672740750153 4745.816635945734 -38.48707213015322  138.0896416444932 -4855.020817451145 82.89512148638654  2898.526031458781 -3127.744780811885 386.2335617656217  4957.63523592025 1246.668335168752 101.0420493689883  2353.978824194905 -1355.492621780997 555.2267093729341  -4375.429113765402 -2605.320423137718 18.61270554114549  -953.1178893755479 -3305.30365151974 491.2400327999042  2591.228378849069 2423.001078774252 -491.190817339817  -4487.403575832916 395.5436365193045 366.2303888865499  1184.359178722632 -3704.636469337026 -436.2579795806369  1316.799759943993 2427.91281838222 545.4504101454853  736.6060100323442 4731.982388329575 155.4579088444818  -3254.314076509714 3094.140393727027 -338.3113127810567  4342.212674524956 -2361.381114947754 -193.7235159273125  -83.81494531384918 1329.922752805785 591.4606577620689  3959.612433867321 -2314.395317884044 328.2461121389311  -5020.684479691318 1167.133426054381 -17.35201074609053  -2673.044297914845 -4184.283394910401 6.599318369520233  -1634.95259681901 -4569.619855042926 -123.7183420415631  4641.955879379791 2157.885412391136 -5.491781897776245  -1200.456933487806 2490.053074046435 545.3118006305643  1495.007954161584 2261.6878926292 -550.2029585776824  -1831.376863578232 375.8977658479561 -584.9179117761856  -1902.100213594828 4293.108266324101 233.3192970288184  4417.145932280726 -2197.751614858012 203.8004457903953  -355.0480949616796 -4851.716633291975 -74.89502520123352  -3410.371108732703 1302.889694724324 -489.1768335443992  -2361.849279110794 1120.016245251244 -560.3244974075529  -1467.992666551743 3978.030994799932 372.6966990175237  -3637.981843487526 -3465.110988992937 -41.60506465284665  -0.02793639445552064 0.2106174052688764 -0.1377492671976442  -1722.1638120645 -1987.425960929076 17.37376137839906  2603.778736108508 775.2086469025973 -2.992755448380672  -1041.248299249639 2093.020831689486 139.7502476436842  1945.756707303762 -1483.617325278259 127.2689267669208  -1281.32739926109 219.2058807086301 -272.5996523157106  -2678.591154659585 394.2214510971514 0.1721541477308181  513.366921427576 2365.721259751742 -121.8399628968338  1819.465179132975 -1168.940491169707 -188.2223010622901  -1422.720017244147 -223.171235173804 265.9654462670947  1355.610038510837 1762.934340630782 219.8986226086817  -500.5875170329163 -2014.27655707274 -237.8070357569676  443.3514995886543 -2885.291723953859 1.079011121747298  1086.194684298178 776.5150562662396 -304.064860
[...]
<PointData  Vectors="Tidal Force"> 
<DataArray  type="Float64"  Name="Tidal Force"  NumberOfComponents="3" format="ascii">-8.3380376832180272e-16 -1.1476324324002340e-15 0.0000000000000000e+00  -3.1311618304067698e-16 -4.3096745351738745e-16 0.0000000000000000e+00  7.4689115949217482e-13 1.0280074888980594e-12 0.0000000000000000e+00  1.3998052461598265e-12 1.9266666337696416e-12 0.0000000000000000e+00  1.8926290093096920e-12 2.6049803516203792e-12 0.0000000000000000e+00  2.1961054357039480e-12 3.0226798183665568e-12 0.0000000000000000e+00  2.2982903743153688e-12 3.1633253204723156e-12 0.0000000000000000e+00  2.1957747287241076e-12 3.0222246392583480e-12 0.0000000000000000e+00  1.8924179197480915e-12 2.6046898117640752e-12 0.0000000000000000e+00  1.3995202752516659e-12 1.9262744049636315e-12 0.0000000000000000e+00  7.4736259284641589e-13 1.0286563612438048e-12 0.0000000000000000e+00  3.4689051289675001e-15 4.7745383052600456e-15 0.0000000000000000e+00  1.6613205858672719e-12 2.2866116194135511e-12 0.0000000000000000e+00  1.3873157804317996e-12 1.9094763589383303e-12 0.0000000000000000e+00  7.1953747046811566e-13 9.9035836585201786e-13 0.0000000000000000e+00  2.8257363437270693e-12 3.8892924170878244e-12 0.0000000000000000e+00  2.8176973495894519e-12 3.8782276908935856e-12 0.0000000000000000e+00  1.8809733473499869e-12 2.5889377092214680e-12 0.0000000000000000e+00  -4.7913812323943598e-13 -6.5947705050037081e-13 0.0000000000000000e+00  7.7955023283112543e-13 1.0729588469992045e-12 0.0000000000000000e+00  -5.0116531899244359e-13 -6.8979488450567810e-13 0.0000000000000000e+00  7.1668424322714949e-14 9.8643123546097755e-14 0.0000000000000000e+00  -1.1159003402852925e-12 -1.5359050540337697e-12 0.0000000000000000e+00  -5.1635673110895638e-13 -7.1070406949767900e-13 0.0000000000000000e+00  -1.6599309129200687e-12 -2.2846988986928841e-12 0.0000000000000000e+00  -9.7056165896401857e-13 -1.3358635206376261e-12 0.0000000000000000e+00  -2.0867751154323514e-12 -2.8721995421249130e-12 0.0000000000000000e+00  -1.3908550487479672e-12 -1.9143477438623584e-12 0.0000000000000000e+00  -2.3746414687462542e-12 -3.2684135864974210e-12 0.0000000000000000e+00  -1.5816976032315796e-12 -2.1770199856157366e-12 0.0000000000000000e+00  -2.4711199528757423e-12 -3.4012048278210983e-12 0.0000000000000000e+00  -2.9119805022782959e-13 -4.0079973177117030e-13 0.0000000000000000e+00  2.4273259051623679e-12 3.3409274922999249e-12 0.0000000000000000e+00  3.1846835887505652e-12 4.3833409157397170e-12 0.0000000000000000e+00  3.4242913501232436e-12 4.7131327066302255e-12 0.0000000000000000e+00  -1.5791539740142940e-12 -2.1735189803472752e-12 0.0000000000000000e+00  -6.4735187671947962e-13 -8.9100341965797572e-13 0.0000000000000000e+00  2.6480974413215653e-12 3.6447934433462523e-12 0.0000000000000000e+00  3.2701572704019501e-12 4.5009853458880867e-12 0.0000000000000000e+00  1.4111829735300909e-12 1.9423267320244194e-12 0.0000000000000000e+00  3.1653583393860437e-13 4.3567419918950997e-13 0.0000000000000000e+00  1.1939647783245015e-12 1.6433515352258744e-12 0.0000000000000000e+00  1.2070980672154098e-12 1.6614279566189128e-12 0.0000000000000000e+00  2.3927423986534933e-12 3.2933273791754766e-12 0.0000000000000000e+00  3.1649291239441228e-12 4.3561512275206153e-12 0.0000000000000000e+00  -2.2024838586236422e-12 -3.0314589643578722e-12 0.0000000000000000e+00  -3.1284669203370037e-12 -4.3059653096750621e-12 0.0000000000000000e+00  -1.1931943014246596e-12 -1.6422910647503649e-12 0.0000000000000000e+00  3.4305149740310974e-12 4.7216987900602505e-12 0.0000000000000000e+00  3.6245379445761564e-12 4.9887484989819403e-12 0.0000000000000000e+00  3.1840397655876844e-12 4.3824547691779907e-12 0.0000000000000000e+00  3.4630298028362871e-12 4.7664516125929212e-12 0.0000000000000000e+00  2.8777734388209421e-12 3.9609153339976629e-12 0.0000000000000000e+00  2.9807605177664443e-12 4.1026648875573766e-12 0.0000000000000000e+00  2.2211476940284817e-12 3.0571475299860710e-12 0.0000000000000000e+00  2.2230580545609666e-12 3.0597769156856215e-12 0.0000000000000000e+00  1.3608275586103021e-12 1.8730184493031342e-12 0.0000000000000000e+00  2.8674370866212390e-12 3.9466885657006510e-12 0.0000000000000000e+00  -3.0898832666358005e-12 -4.2528594662736551e-12 0.0000000000000000e+00  -3.5835478698727080e-12 -4.9323305012186694e-12 0.0000000000000000e+00  1.2647325538510545e-12 1.7407550220517424e-12 0.0000000000000000e+00  3.2494071664966250e-13 4.4724252780134172e-13 0.0000000000000000e+00  2.1362967265838188e-13 2.9403601924137977e-13 0.0000000000000000e+00  -7.5423003991715072e-13 -1.0381085912355566e-12 0.0000000000000000e+00  -8.4712703781815147e-13 -1.1659703396639458e-12 0.0000000000000000e+00  -5.9904754870657513e-13 -8.2451821587377657e-13 0.0000000000000000e+00  1.3397150842908966e-13 1.8439596213418108e-13 0.0000000000000000e+00  -1.6296747424240034e-12 -2.2430548526226648e-12 0.0000000000000000e+00  -9.1530896621509903e-13 -1.2598147132500916e-12 0.0000000000000000e+00  -1.5203373858336871e-12 -2.0925648917191443e-12 0.0000000000000000e+00  -2.4716652675765433e-12 -3.4019553891165500e-12 0.0000000000000000e+00  9.1521397591237887e-14 1.2596839703147550e-13 0.0000000000000000e+00  -1.6204079106697435e-12 -2.2303001529309259e-12 0.0000000000000000e+00  -3.3953193077935803e-12 -4.6732561113525208e-12 0.0000000000000000e+00  -2.2265339960086541e-12 -3.0645611386527584e-12 0.0000000000000000e+00  -3.0501913927361950e-12 -4.1982282886266541e-12 0.0000000000000000e+00  -1.8728041813160489e-12 -2.5776938167825086e-12 0.0000000000000000e+00  1.2474196916404572e-12 1.7169259115038876e-12 0.0000000000000000e+00  -9.5046593269965499e-13 -1.3082041263174988e-12 0.0000000000000000e+00  2.5683513231082727e-12 3.5350323279655930e-12 0.0000000000000000e+00  -3.1415579913155922e-12 -4.3239836230968392e-12 0.0000000000000000e+00  -1.1687712391474869e-12 -1.6086756033760089e-12 0.0000000000000000e+00  1.1081146536215957e-13 1.5251889756670955e-13 0.0000000000000000e+00  -2.6759999632057853e-12 -3.6831979700186827e-12 0.0000000000000000e+00  -3.3561410851605362e-12 -4.6193319140225254e-12 0.0000000000000000e+00  1.0988830034609360e-12 1.5124826992847408e-12 0.0000000000000000e+00  -3.4660694925233339e-12 -4.7706353865236964e-12 0.0000000000000000e+00  -9.4341202318283977e-13 -1.2984952527860116e-12 0.0000000000000000e+00  -1.9505203215786172e-12 -2.6846609072117121e-12 0.0000000000000000e+00  -2.8171555530480111e-12 -3.8774819719290727e-12 0.0000000000000000e+00  -3.3307681198561617e-12 -4.5844090232948020e-12 0.0000000000000000e+00  -1.9975827393374388e-12 -2.7494367681746567e-12 0.0000000000000000e+00  3.7390153319914445e-12 5.1463131053864603e-12 0.0000000000000000e+00  -3.6955942091702297e-12 -5.0865490569447566e-12 0.0000000000000000e+00  -3.3352643275182509e-12 -4.5905975222340733e-12 0.0000000000000000e+00  3.0330825837684777e-12 4.1746800332732260e-12 0.0000000000000000e+00  2.2269174753788949e-12 3.0650889527250440e-12 0.0000000000000000e+00  1.7633542436262125e-12 2.4270489012889591e-12 0.0000000000000000e+00  1.2395882689050800e-13 1.7061468828350147e-13 0.0000000000000000e+00  -2.7223517127738858e-12 -3.7469956801320717e-12 0.0000000000000000e+00  2.5730867656068432e-12 3.5415501054086768e-12 0.0000000000000000e+00  -3.6856659634562879e-12 -5.0728839990365987e-12 0.0000000000000000e+00  1.3882129110686012e-12 1.9107111533276215e-12 0.0000000000000000e+00  2.8067171742268686e-13 3.8631147760348468e-13 0.0000000000000000e+00  2.5473162482947877e-12 3.5060800312849138e-12 0.0000000000000000e+00  -9.9288086194390663e-13 -1.3665832681108205e-12 0.0000000000000000e+00  -2.6546834356434995e-12 -3.6538582868629317e-12 0.0000000000000000e+00  -1.8540031376961684e-12 -2.5518164002477118e-12 0.0000000000000000e+00  -2.8527558076119281e-12 -3.9264815186947182e-12 0.0000000000000000e+00  -2.6073923375262771e-12 -3.5887676743889911e-12 0.0000000000000000e+00  -2.9451285997682876e-12 -4.0536217598132855e-12 0.0000000000000000e+00  -2.3839118186598742e-12 -3.2811731285200990e-12 0.0000000000000000e+00  4.0951374950488543e-13 5.6364732122948206e-13 0.0000000000000000e+00  7.8613270899369953e-14 1.0820188481849465e-13 0.0000000000000000e+00  -3.0239951781415775e-12 -4.1621722924593451e-12 0.0000000000000000e+00  2.1733112812104592e-12 2.9913063562166795e-12 0.0000000000000000e+00  3.5529434016000019e-12 4.8902070643855493e-12 0.0000000000000000e+00  1.2181345331277537e-12 1.6766183487726660e-12 0.0000000000000000e+00  -7.6538964140709475e-13 -1.0534684649721539e-12 0.0000000000000000e+00  -2.5542294314372025e-12 -3.5155952115788651e-12 0.0000000000000000e+00  1.2359293831706724e-12 1.7011108586590810e-12 0.0000000000000000e+00  2.9529353953881445e-12 4.0643668921655897e-12 0.0000000000000000e+00  3.6448904964738007e-12 5.0167613834605710e-12 0.0000000000000000e+00  3.6954781099113504e-12 5.0863892600237901e-12 0.0000000000000000e+00  -3.5425542770098988e-12 -4.8759076611244611e-12 0.0000000000000000e+00  2.0486875222009093e-12 2.8197764673858205e-12 0.0000000000000000e+00  1.1474265663103208e-12 1.5792971815727508e-12 0.0000000000000000e+00  -2.0115955680683492e-12 -2.7687237723022943e-12 0.0000000000000000e+00  -9.1302568079045404e-13 -1.2566720404710713e-12 0.0000000000000000e+00  -1.7280108146955761e-12 -2.3784028446818168e-12 0.0000000000000000e+00  3.4340612786659848e-12 4.7265798596461548e-12 0.0000000000000000e+00  -2.9089900668222895e-12 -4.0038813364140654e-12 0.0000000000000000e+00  -6.2539856231303206e-13 -8.6078727460237458e-13 0.0000000000000000e+00  2.9659807302950524e-12 4.0823222552851687e-12 0.0000000000000000e+00  2.1674676185134862e-13 2.9832632445280003e-13 0.0000000000000000e+00  -3.5384872847897309e-12 -4.8703099265596737e-12 0.0000000000000000e+00  -2.4453564718824071e-12 -3.3657444383592123e-12 0.0000000000000000e+00  2.6335181889336939e-12 3.6247268239375320e-12 0.0000000000000000e+00  -1.7521383515865083e-12 -2.4116115502573474e-12 0.0000000000000000e+00  -1.7399795928383217e-12 -2.3948764545342450e-12 0.0000000000000000e+00  2.0700955219065558e-12 2.8492420511459699e-12 0.0000000000000000e+00  3.2224334386834471e-12 4.4352991267087235e-12 0.0000000000000000e+00  4.4673939369312586e-13 6.1488402488866717e-13 0.0000000000000000e+00  4.8500993121128865e-13 6.6755890083655638e-13 0.0000000000000000e+00  7.7615169088935806e-13 1.0682811553127123e-12 0.0000000000000000e+00  3.4371361499466305e-13 4.7308120568863136e-13 0.0000000000000000e+00  -1.5172414055968802e-12 -2.0883036404933538e-12 0.0000000000000000e+00  -3.7479479386065027e-12 -5.1586077836390524e-12 0.0000000000000000e+00  -3.5223354151679352e-12 -4.8480787852214892e-12 0.0000000000000000e+00  3.3831957306389948e-12 4.6565694389388022e-12 0.0000000000000000e+00  9.8971803667925975e-13 1.3622300125972009e-12 0.0000000000000000e+00  2.0475933746399467e-12 2.8182705024639785e-12 0.0000000000000000e+00  -5.8369430125950200e-13 -8.0338628365860943e-13 0.0000000000000000e+00  1.7812124205376110e-12 2.4516285731322651e-12 0.0000000000000000e+00  6.1842908862085699e-13 8.5119461701340890e-13 0.0000000000000000e+00  -3.1261273443625987e-12 -4.3027451596010277e-12 0.0000000000000000e+00  -7.1834481444507310e-13 -9.8871681566390105e-13 0.0000000000000000e+00  -3.6427373829454758e-13 -5.0137978769262717e-13 0.0000000000000000e+00  1.7812722292467311e-12 2.4517108927582179e-12 0.0000000000000000e+00  -3.7367813007978396e-12 -5.1432382252405783e-12 0.0000000000000000e+00  1.1961741824025862e-16 1.6463925190551882e-16 0.0000000000000000e+00  -1.9807131652062023e-12 -2.7262177913250403e-12 0.0000000000000000e+00  1.6309483161123263e-12 2.2448077764223653e-12 0.0000000000000000e+00  8.1757449919408767e-13 1.1252947597814058e-12 0.0000000000000000e+00  -4.2995425538652960e-14 -5.9178126398157199e-14 0.0000000000000000e+00  -4.3514354044254076e-13 -5.9892370211570854e-13 0.0000000000000000e+00  -9.4891090626253146e-13 -1.3060638160427269e-12 0.0000000000000000e+00  1.6750308528932214e-12 2.3054821830804867e-12 0.0000000000000000e+00  9.3354358617801844e-14 1.2849125145038063e-13 0.0000000000000000e+00  -7.6851376691878154e-13 -1.0577684548454509e-12 0.0000000000000000e+00  1.6805015906980334e-12 2.3130120076896951e-12 0.0000000000000000e+00  -1.4543683796741844e-12 -2.0017663442932504e-12 0.0000000000000000e+00  -1.5678501279905898e-12 -2.1579605710422039e-12 0.0000000000000000e+00  9.5743892455118989e-13 1.3178016262374026e-12 0.0000000000000000e+00  -1.5718854567765183e-12 -2.1635147246285457e-12 0.0000000000000000e+00  2.5431366749750987e-13 3.5003273421300981e-13 0.0000000000000000e+00  5.3859853458292446e-13 7.4131728569022875e-13 0.0000000000000000e+00  -1.8317155981505204e-12 -2.5211402337529631e-12 0.0000000000000000e+00  1.2937608867304771e-12 1.7807090946244606e-12 0.0000000000000000e+00  6.7990540527763006e-13 9.3580950783096888e-13 0.0000000000000000e+00  2.1289050737684428e-12 2.9301864551122246e-12 0.0000000000000000e+00  2.1413417671060697e-12 2.9473040949794601e-12 0.0000000000000000e+00  2.5756515037802888e-12 3.5450801646627685e-12 0.0000000000000000e+00  -4.6625814182244805e-13 -6.4174927693489718e-13 0.0000000000000000e+00  8.5242538581432304e-13 1.1732628900571726e-12 0.0000000000000000e+00  9.5924725846223377e-13 1.3202905843397391e-12 0.0000000000000000e+00  -2.0353923979794406e-12 -2.8014772987696160e-12 0.0000000000000000e+00  1.4706257940767795e-12 2.0241427555595854e-12 0.0000000000000000e+00  -5.3424657145459506e-13 -7.3532732231943098e-13 0.0000000000000000e+00  -7.2281991315100275e-13 -9.9487626061754308e-13 0.0000000000000000e+00  -3.1131136728899305e-13 -4.2848333774598951e-13 0.0000000000000000e+00  -2.3925664906854933e-12 -3.2930852626285573e-12 0.0000000000000000e+00  -2.4746275577576703e-12 -3.4060326317666808e-12 0.0000000000000000e+00  -1.2588642640385618e-12 -1.7326780140464952e-12 0.0000000000000000e+00  3.6045301722957930e-13 4.9612101629352732e-13 0.0000000000000000e+00  -1.2981304406556065e-12 -1.7867232696499506e-12 0.0000000000000000e+00  1.7314480563903036e-12 2.3831338020086311e-12 0.0000000000000000e+00  -1.5788760394248535e-12 -2.1731364362031417e-12 0.0000000000000000e+00  2.3451522569906706e-12 3.2278251685717723e-12 0.0000000000000000e+00  1.1126214157617656e-12 1.5313920015991832e-12 0.0000000000000000e+00  1.0225741269423708e-12 1.4074525412308962e-12 0.0000000000000000e+00  </DataArray> 
</PointData> 
</Piece>
</UnstructuredGrid>
</VTKFile>