<?xml version="1.0"?>
<VTKFile type="UnstructuredGrid"  version="0.1"  >
<UnstructuredGrid>
<Piece  NumberOfPoints="201" NumberOfCells="657">
<Points>
<DataArray  type="Float64"  NumberOfComponents="3"  format="ascii">-16.81434405273107 37.61989040474313 101.3934255638503  -0.7768737994504824 -38.8572389023199 -102.297343612516  1529.885309554382 15.92238377847382 -143.3620367347617  2582.164494726425 54.63566828573899 -179.0192518628392  3158.539664704089 75.59163168679306 -190.0737670441329  3448.126334300598 83.1284568123825 -142.5158302681206  3538.013581418331 84.0465013489043 -59.52518364338652  3449.053673511146 84.5042823883702 22.29278621252686  3159.072789850777 88.2870200363645 71.96908665801602  2583.18554097957 92.83507737839921 75.99935423343447  1521.349763005207 79.94608022275497 81.07409471147679  1768.12033505949 -487.9281058902747 -324.0461392935176  1858.582936298755 489.3458783669986 216.0640388751619  3391.092415471097 -379.2542992929386 -203.1959803741418  2774.03173341242 -416.5112150314739 -69.06317134513931  3243.759588645649 556.5686607135317 163.9052789041238  3248.728902429701 552.8591581537812 -47.35592470416658  2054.407351890418 509.633264344631 -7.5561739506408  714.4829399287879 -416.8974121407985 -75.58501029051391  2754.930011475556 -398.9763817288773 -313.267920610238  1938.017740927974 -832.9159726424393 -419.0843014349723  2670.096383369842 -794.3991997599795 -378.9330927607151  1823.841013460014 -1133.973111377929 -447.5130021158716  2468.553907794965 -1056.837482200888 -373.8981203028555  1540.493921576771 -1322.394378599566 -420.992402879957  2188.863468601579 -1193.671393953566 -337.8022550965414  1120.952136762528 -1405.094492462471 -377.4564071735811  1715.148307030439 -1236.489243309776 -306.277672772235  553.451293865245 -1388.369826964177 -335.4321994126768  1153.632311871567 -1153.160095850257 -279.0823279660432  -155.6322173334839 -1268.142074764243 -285.2315910533583  2605.191958208631 -979.192274871643 -245.5569523610812  2809.978037816736 555.5299718820298 211.8739474324488  2720.565307539428 957.2793744301158 292.1060677046668  3082.454283715611 928.8847231921279 203.328060838356  424.8381121659798 -959.5970597092555 -229.3174928020413  1729.447077049311 -810.0926465736309 -196.1215393151094  2073.004649919047 912.4286207061757 335.6713821816451  1895.291323746761 1235.568024416865 387.7384698141276  3401.055373782448 -367.9659299363832 -120.8184683016206  3004.832314708466 -821.2316581645371 -257.5553162552289  3217.904917075031 -388.1512353482594 -273.4567361175907  795.1819242362872 466.2440663167235 47.09561623398963  2814.990845951949 524.1795445101154 -51.678031464434  2726.769593063627 947.8434352937894 74.41872066845855  719.361139162457 -1352.47313091742 -468.3045820701759  -697.3216434513866 -1447.052578436083 -318.9731862073387  856.5267283879296 -891.0885176245816 -419.2266327274931  3074.17510340019 938.7535028166085 89.6789096361486  2416.821005819642 1254.282676648901 191.5901167899522  1883.611273234253 1202.972744540898 192.2729881000654  1457.649520527779 1420.896082435535 281.2829450341256  740.411845985234 1322.342225693866 277.6228800661856  277.6544261741356 1466.1876331989 339.5206463245574  -557.3607153176829 1313.131719517009 312.4717808449855  -922.7723972371862 1412.319406657285 359.5814226486233  -1717.563063951079 1223.418656254724 301.4277876734122  -97.04995962325104 1499.631098517991 401.2748040073711  -1423.428423039334 -1278.345737961427 -236.9462614305881  -1791.875462617703 -1405.65902957812 -264.850309444139  -1949.23608969486 1262.580150412914 345.6760887851876  -2593.422069369721 1002.286439186917 255.397352136021  -2705.966882987825 999.2866778919546 309.4627350518384  -3176.184972508328 650.9490671339605 183.7476683535048  -3206.043493723406 616.1285898830697 254.913508158714  -2966.727623884637 614.1681661216842 130.4069549993561  -2663.73902775996 927.8867006808105 373.0686590681166  -3384.746090887122 228.1711561442519 54.457371875635  -3090.279133239796 500.1620897291009 305.4341530271021  -3113.040760833797 112.5298765524839 -17.32716309468068  -3328.283061151057 -315.032923555503 -104.5221106706073  -2432.791104794997 787.2134609174495 400.578057888699  -756.3839293884073 -708.7615072502367 -125.0707811490603  -2410.964179504857 -1157.97774506049 -154.4369880347551  -2923.57239907281 -398.7776624943488 -166.3508323556476  -2985.688728714073 -792.2289283818326 -240.2352578463435  -3436.196361481278 115.9890284477608 175.3127577064495  -1359.311350011259 1037.405547736345 251.6170037458195  -2782.382686441576 311.4990488492238 294.2927523555803  1012.644490026993 1131.026966236634 426.0262992629238  -3337.087279615464 -670.2659115346887 -125.4710728434334  -2542.423459562271 30.44335713635625 -41.84942903887507  -1956.495739724384 619.2396946037253 368.8519536895733  -2373.522617446425 -836.323494392419 -304.6309888665303  -2340.567592707253 -1157.348574906676 -345.2113454902197  -1860.341062693467 1143.374654505758 448.4902896439206  -1082.944882167564 -1509.285224142607 -352.7863248804702  -2191.353382788329 75.30538101864023 201.0865997060397  -2911.834613263293 -233.949957391834 141.5042380237091  -1508.225565999385 -1138.124696433755 -407.694920816523  -1436.881885914262 -1377.358001712389 -418.7352532413768  -1410.255773717804 -780.8945628210294 -324.9938513681406  2000.57641748071 1410.598436261072 296.3792322063529  -2592.501202225712 -1234.325234592602 -197.7981554326892  -3072.965344212662 -897.2755619740642 -69.04213676922171  818.6561345596386 1375.221864184532 446.8459210734176  -192.3713860875119 1235.818771466924 471.9625809600734  -29.73412727816898 985.6022817035447 424.8513546957474  -1282.383827747984 423.9249653342446 287.8822334968622  -2004.101995313882 -960.1452186566377 -121.9428996478109  1128.305778010181 1100.427141941925 209.3812390763188  -2183.599391255263 -1346.56959584816 -333.2256368619317  -274.1444953383146 822.4334154492424 188.9903302667916  -790.0740747137135 324.8061804551967 45.65394462409624  -349.2797682940136 1416.476644298591 459.4634297596012  -1098.038135083598 -275.5085014561413 29.17973287666796  -400.453616018248 -1303.73058480698 -466.4706722597591  -2120.766422512977 -473.4206056032475 21.41712021324706  -2839.758729028981 -755.713349007532 -18.18863147833737  -3281.084988979797 -416.2373472124885 85.75461815181514  -3426.298566749523 -517.5697733919982 -1.15807866816832  -3516.917565485923 -141.1119847087634 21.5261378983431  -1694.076592268369 663.5098045319264 155.8049987853567  -2365.486522266901 725.106548850496 163.1353530384932  -451.2163574098797 -1453.579921436574 -446.7527172502481  -57.02278630926519 1170.911266061753 267.3613222883167  1624.953403491998 1418.650127815353 380.604918287271  3219.733939554628 -362.3872568690541 -66.27720481718595  200.3068838860235 -515.9391344732734 -281.0076825921568  499.2527682333103 -1459.861103796718 -430.0768499990393  -1240.548994528785 1017.065379819671 455.2750510066527  3433.364390077664 522.6996997283726 -1.998667266461842  2459.95519730466 1247.284580589461 308.1234226826431  2804.942509343591 1161.351442929903 202.9928213016497  -2862.551250984643 -1071.236403271881 -252.5534705761215  -1181.461709080129 1406.774058611652 410.4539893933764  -2015.96531407827 1228.072754720695 401.0101849978141  -327.5409081111154 -1029.127433615496 -426.6167809848302  -1172.391478028218 -267.6081017132731 -155.8275543603781  -2243.270397424824 -401.822232680929 -182.1322651803446  992.6930881038527 1506.658275991017 357.4664192859105  -16.12961246795804 -1498.345439958663 -375.7726331470404  2151.627837186736 -966.889992196055 -227.9162130339541  3432.811476213741 528.1381020919098 79.19560266688011  1974.643483847027 -383.6814518901815 -70.36832573935762  -3097.317438576519 -982.0317965042955 -150.3695204571593  -900.8632972222587 -1095.734800619555 -221.0046653542345  2162.218818514452 870.4852171338018 89.29581691615685  -3236.546931435441 60.83020377382358 215.4461893250712  853.05371185327 -1165.30379715889 -472.718866245698  1187.595362197029 864.8896168125101 355.2079574803763  651.8725707124877 1488.789668454592 418.8250453762308  -2376.210515569631 961.7869077008197 228.18167441771  3030.602430059014 -729.4268285494804 -309.4937253579362  -43.51825476086565 484.2748339561601 263.1891924211055  2858.767362510917 -709.8395862382334 -158.0656734029073  -3423.2203129224 331.8638839889333 145.1209228558137  -2021.364293598077 -1416.893057290066 -301.9322992513748  -1317.635651835035 -1483.262121606656 -386.4857146165627  3247.806009071475 837.9446685425651 112.4902710172614  -973.3503758499514 817.1316860634649 402.9069547707479  1373.390437791638 782.4964340866907 114.4055781342316  -1631.664198971498 49.26065252914824 -34.64036294790707  -1339.892198304636 1323.557732969371 450.010996400427  3091.648142549263 -674.706659769442 -168.6065558470931  -384.150134418559 -1511.849004677742 -409.5064033072237  -2670.571077736581 364.2164398050415 60.60895207907276  -1992.258313870282 304.098333650492 48.86257726847938  -1058.179531990737 1239.888653746189 474.535190225864  -2641.971762946137 -1233.959510789369 -246.0650653818412  -6.092277101850962 -0.6832530698252623 -0.1769634557693028  -1550.708034213994 -722.9697157352455 -190.3997221876723  2238.794104094993 335.3868570050169 43.00098381455507  -873.9637753400469 684.5215609292953 282.4470735356584  1664.594624201725 -450.5194996224672 -175.3295529805984  -1182.783906621758 23.25583363904828 1.376157027824821  -2265.933849248822 70.70025841510034 88.66562649851008  527.8501933341527 803.2374409167683 234.8531010186733  1587.49932490251 -360.6562107432758 -203.1479878802071  -1316.939338310682 -103.8224298930481 47.62801599130552  1255.264514590883 647.9841120776686 220.4915098066958  -513.1366085614674 -706.1540531678393 -266.8287522892142  305.2361173509025 -939.7342197579661 -318.765222971169  1032.779465554847 282.9987549005644 19.32145644099782  -455.1277872409673 -
[...]
<PointData  Vectors="Tidal Force"> 
<DataArray  type="Float64"  Name="Tidal Force"  NumberOfComponents="3" format="ascii">-8.4825800355973801e-14 1.5099511353027378e-24 8.3890015565169914e-25  -3.9264553368274637e-15 6.9893306855672873e-26 3.8831393036093327e-26  7.7199977663232338e-12 -1.3742068265641117e-22 -7.6348319740236201e-23  1.3029918093461102e-11 -2.3194051262185007e-22 -1.2886174101348888e-22  1.5938392000614377e-11 -2.8371312731778903e-22 -1.5762562185140139e-22  1.7399679814536722e-11 -3.0972494429300857e-22 -1.7207729303407188e-22  1.7853257231342796e-11 -3.1779889977093981e-22 -1.7656302926010106e-22  1.7404372407500247e-11 -3.0980847531827514e-22 -1.7212370128428574e-22  1.5941085453208239e-11 -2.8376107242157730e-22 -1.5765225923991704e-22  1.3035065580640480e-11 -2.3203214104242307e-22 -1.2891264802265206e-22  7.6769264666223035e-12 -1.3665398717450048e-22 -7.5922358300773211e-23  8.9221634698157982e-12 -1.5881996755785658e-22 -8.8237355759311316e-23  9.3786378445228249e-12 -1.6694549065852889e-22 -9.2751741976543966e-23  1.7111887397607852e-11 -3.0460206322557798e-22 -1.6923111766827699e-22  1.3998112548300336e-11 -2.4917496617422797e-22 -1.3843687588350775e-22  1.6368410685399488e-11 -2.9136772295458630e-22 -1.6187836971921405e-22  1.6393513663574265e-11 -2.9181457132189222e-22 -1.6212663018017955e-22  1.0366787790357458e-11 -1.8453516415763978e-22 -1.0252423029836518e-22  3.6053838167388983e-12 -6.4178037394770439e-23 -3.5656097936638879e-23  1.3901722858141389e-11 -2.4745917072666139e-22 -1.3748361253982903e-22  9.7794954158917409e-12 -1.7408100063831261e-22 -9.6716095718027561e-23  1.3473655430124275e-11 -2.3983930865394174e-22 -1.3325016198014105e-22  9.2033240079135617e-12 -1.6382479712529311e-22 -9.1017943955161081e-23  1.2456643643383876e-11 -2.2173587673157168e-22 -1.2319223924182584e-22  7.7735196620883419e-12 -1.3837340514102007e-22 -7.6877634247139782e-23  1.1045274484201077e-11 -1.9661264234656001e-22 -1.0923424765964477e-22  5.6564659233141446e-12 -1.0068855356350255e-22 -5.5940646873868129e-23  8.6548652344011019e-12 -1.5406189545791658e-22 -8.5593861323021896e-23  2.7927871255218704e-12 -4.9713319215898687e-23 -2.7619775404068598e-23  5.8213890183613153e-12 -1.0362428554079098e-22 -5.7571683769777450e-23  -7.8535092186757851e-13 1.3979726817885423e-23 7.7668705491856788e-24  1.3146131594710863e-11 -2.3400918403329792e-22 -1.3001105553664254e-22  1.4179495631421098e-11 -2.5240369600799990e-22 -1.4023069682034583e-22  1.3728324365598871e-11 -2.4437257148945277e-22 -1.3576875666139059e-22  1.5554449311534905e-11 -2.7687871258979522e-22 -1.5382855090979586e-22  2.1437967303061265e-12 -3.8160893185796709e-23 -2.1201467044133343e-23  8.7270018803148896e-12 -1.5534597188203942e-22 -8.6307269781666710e-23  1.0460639649627969e-11 -1.8620578466297050e-22 -1.0345239530264253e-22  9.5638875284783281e-12 -1.7024304835240553e-22 -9.4583802364451111e-23  1.7162153208459493e-11 -3.0549682540694068e-22 -1.6972823053217504e-22  1.5162761449885531e-11 -2.6990642905224150e-22 -1.4995488267765874e-22  1.6237963783553728e-11 -2.8904568830578662e-22 -1.6058829139630454e-22  4.0125979362293247e-12 -7.1426697819494280e-23 -3.9683315915019328e-23  1.4204814085803384e-11 -2.5285437998360885e-22 -1.4048108827239259e-22  1.3759628270189735e-11 -2.4492980014014659e-22 -1.3607834231013869e-22  3.6299840170961557e-12 -6.4615936009369228e-23 -3.5899386085081472e-23  -3.5187623813203509e-12 6.2636122856942241e-23 3.4799439521976768e-23  4.3221414792161675e-12 -7.6936762236183266e-23 -4.2744602991626945e-23  1.5512670869079026e-11 -2.7613503075770283e-22 -1.5341537541682035e-22  1.2195582247086518e-11 -2.1708882418307010e-22 -1.2061042515849926e-22  9.5049308439238310e-12 -1.6919358330281962e-22 -9.4000739526942702e-23  7.3554838486208055e-12 -1.3093211194374276e-22 -7.2743393161123263e-23  3.7362018164975886e-12 -6.6506677813425284e-23 -3.6949846299743835e-23  1.4010861557244609e-12 -2.4940190633215881e-23 -1.3856295952248166e-23  -2.8125031985089280e-12 5.0064277375628237e-23 2.7814761088002881e-23  -4.6564288733652738e-12 8.2887282339673098e-23 4.6050598877397997e-23  -8.6670396401253501e-12 1.5427860732703919e-22 8.5714262319112472e-23  -4.8972953606588875e-13 8.7174853154438319e-24 4.8432691741054196e-24  -7.1828036101033174e-12 1.2785829806754434e-22 7.1035640586288983e-23  -9.0420161247923729e-12 1.6095341813175597e-22 8.9422660354059383e-23  -9.8360818621636425e-12 1.7508827399656496e-22 9.7275717653642252e-23  -1.3086731986840929e-11 2.3295183467775564e-22 1.2942361232857821e-22  -1.3654655444431687e-11 2.4306121962850818e-22 1.3504019448839023e-22  -1.6027419587016772e-11 2.8529787281500138e-22 1.5850607633313743e-22  -1.6178085339667109e-11 2.8797981537623767e-22 1.5999611265250413e-22  -1.4970472876484741e-11 2.6648357482046510e-22 1.4805320991443079e-22  -1.3441561446105877e-11 2.3926801610613670e-22 1.3293276269742834e-22  -1.7079853268091540e-11 3.0403183612452380e-22 1.6891431032753133e-22  -1.5593917370210270e-11 2.7758126817730486e-22 1.5421887744284463e-22  -1.5708778159712891e-11 2.7962586049218341e-22 1.5535481407754375e-22  -1.6794921896362372e-11 2.9895988341178375e-22 1.6609642978775969e-22  -1.2276182319595235e-11 2.1852355477776290e-22 1.2140753421127978e-22  -3.8168018890063059e-12 6.7941408408118085e-23 3.7746955352524371e-23  -1.2166038064856975e-11 2.1656291966685121e-22 1.2031824260358133e-22  -1.4752722197896656e-11 2.6260747954087762e-22 1.4589972503843525e-22  -1.5066156283519073e-11 2.6818679799637166e-22 1.4899948834289873e-22  -1.7339478156338839e-11 3.0865331795100498e-22 1.7148191780364958e-22  -6.8592541136284010e-12 1.2209891911115677e-22 6.7835839089400168e-23  -1.4040250117768728e-11 2.4992504068682546e-22 1.3885360302828535e-22  5.1099344647688461e-12 -9.0959959281503311e-23 -5.0535624773066781e-23  -1.6839357878710857e-11 2.9975087107961384e-22 1.6653588750407057e-22  -1.2829381569672891e-11 2.2837083982780676e-22 1.2687849864720646e-22  -9.8727128174401414e-12 1.7574032740808432e-22 9.7637986137454584e-23  -1.1977101343572988e-11 2.1319973045312231e-22 1.1844971859050615e-22  -1.1810789624077427e-11 2.1023928011121416e-22 1.1680494864096213e-22  -9.3875082817319380e-12 1.6710338986700464e-22 9.2839467776055381e-23  -5.4646801277308740e-12 9.7274649084433233e-23 5.4043946423163095e-23  -1.1057831958738674e-11 1.9683617307488802e-22 1.0935843708432421e-22  -1.4693490182632563e-11 2.6155311343623771e-22 1.4531393926787857e-22  -7.6107034455145912e-12 1.3547517688936150e-22 7.5267433708469340e-23  -7.2506905863690147e-12 1.2906672777235693e-22 7.1707021165275835e-23  -7.1163172291864287e-12 1.2667479981670166e-22 7.0378111449330261e-23  1.0095168059892169e-11 -1.7970016680228851e-22 -9.9837997652057397e-23  -1.3082075306578656e-11 2.3286894292053964e-22 1.2937755924354455e-22  -1.5506565709866276e-11 2.7602635518911621e-22 1.5335499733618494e-22  4.1310380249566750e-12 -7.3535003850073637e-23 -4.0854650679345866e-23  -9.7073228572767017e-13 1.7279628494613927e-23 9.6002332094202554e-24  -1.5004326582864458e-13 2.6708619150274504e-24 1.4838801229097370e-24  -6.4710617549008370e-12 1.1518885766385263e-22 6.3996740268136658e-23  -1.0112944847011647e-11 1.8001660448729058e-22 1.0001380441626044e-22  5.6935757146073307e-12 -1.0134913054902872e-22 -5.6307650893416577e-23  -1.1018711056175406e-11 1.9613979707853336e-22 1.0897154381468410e-22  -1.3833572522066514e-12 2.4624605305614499e-23 1.3680962741618733e-23  -3.9868126167307683e-12 7.0967703359228672e-23 3.9428307315629853e-23  -1.7625115811192619e-12 3.1373784293540504e-23 1.7430678325863195e-23  -5.5408509670852430e-12 9.8630536619563263e-23 5.4797251770384620e-23  -2.0207358740177535e-12 3.5970334666051838e-23 1.9984434359953345e-23  -1.0701649787726588e-11 1.9049591254993776e-22 1.0583590882701957e-22  -1.4329766344357668e-11 2.5507860662068056e-22 1.4171682632273021e-22  -1.6556772803463451e-11 2.9472068387950706e-22 1.6374121108940587e-22  -1.7289523588898043e-11 3.0776409609274669e-22 1.7098788303798001e-22  -1.7746811984833435e-11 3.1590410926923049e-22 1.7551031966596404e-22  -8.5485277259954969e-12 1.5216902276035884e-22 8.4542217224425507e-23  -1.1936555903860077e-11 2.1247799682409743e-22 1.1804873710205114e-22  -2.2768892011440768e-12 4.0530020580983815e-23 2.2517709201984823e-23  -2.8774453332720040e-13 5.1220287100299043e-24 2.8457018122212657e-24  8.1997196296403785e-12 -1.4596002527511310e-22 -8.1092616217456942e-23  1.6247181376874938e-11 -2.8920976710541734e-22 -1.6067945045922466e-22  1.0107869185234771e-12 -1.7992625460281859e-23 -9.9963607737457673e-24  2.5192999345915041e-12 -4.4845079921920941e-23 -2.4915074168389974e-23  -6.2599668969446919e-12 1.1143124006295952e-22 6.1909079338873022e-23  1.7325184901240754e-11 -3.0839888926690230e-22 -1.7134056206192674e-22  1.2413249129371682e-11 -2.2096342783720640e-22 -1.2276308131574098e-22  1.4154093380735890e-11 -2.5195152040693967e-22 -1.3997947664954523e-22  -1.4444794726466128e-11 2.5712618218646151e-22 1.4285442039493699e-22  -5.9617957093541484e-12 1.0612361052893179e-22 5.8960261235997988e-23  -1.0172811319997849e-11 1.8108226432748942e-22 1.0060586477166746e-22  -1.6527982787960189e-12 2.9420820399234878e-23 1.6345648700327235e-23  -5.9160309570593576e-12 1.0530896994323289e-22 5.8507662408019378e-23  -1.1319827085268571e-11 2.0149984659270286e-22 1.1194948546233622e-22  5.0092472213601394e-12 -8.9167664757225685e-23 -4.9539859996156473e-23  -8.1390151936249770e-14 1.4487944918040239e-24 8.0492268674511742e-25  1.0857391202153801e-11 -1.9326820499564603e-22 -1.0737614182518902e-22  1.7322395681443555e-11 -3.0834923944831275e-22 -1.7131297756626390e-22  9.9643141474322257e-12 -1.7737088711558316e-22 -9.8543894123772213e-23  -1.5629447002648393e-11 2.7821371736860858e-22 1.5457025419446391e-22  -4.5458656371124132e-12 8.0919189101505455e-23 4.4957163675930450e-23  1.0910829301615988e-11 -1.9421943585480370e-22 -1.0790462761333876e-22  -1.6332019148131332e-11 2.9071993133007033e-22 1.6151846900326978e-22  4.3046280519058670e-12 -7.6625012516884953e-23 -4.2571400772078767e-23  5.9927404869324984e-12 -1.0667444649912055e-22 -5.9266295232944034e-23  3.2894238711284588e-12 -5.8553757086390462e-23 -3.2531354681167387e-23  -1.1990664373745626e-11 2.1344116068686458e-22 1.1858385264023143e-22  1.5292789370216688e-11 -2.7222100557378512e-22 -1.5124081740679911e-22  -2.1960616815274333e-13 3.9091241288637772e-24 2.1718350769729636e-24  1.4425689169400347e-11 -2.5678609158359061e-22 -1.4266547251906626e-22  -1.7273985360156573e-11 3.0748750611622636e-22 1.7083421490334328e-22  -1.0200057089347297e-11 1.8156725568847571e-22 1.0087531675505205e-22  -6.6489493350997883e-12 1.1835536540737486e-22 6.5755991794101132e-23  1.6388833041511157e-11 -2.9173125338597589e-22 -1.6208034031835908e-22  -4.9116484702590595e-12 8.7430347285291846e-23 4.8574639424744073e-23  6.9303014076042270e-12 -1.2336360440441414e-22 -6.8538474204245338e-23  -8.2335853069205165e-12 1.4656285504674331e-22 8.1427536982393255e-23  -6.7612483519131374e-12 1.2035435660131714e-22 6.6866593312612074e-23  1.5600848521551805e-11 -2.7770464691105308e-22 -1.5428742432262482e-22  -1.9384598754506342e-12 3.4505771562335257e-23 1.9170750932096429e-23  -1.3476025668406872e-11 2.3988150034527538e-22 1.3327360288203478e-22  -1.0053186112129199e-11 1.7895286245124326e-22 9.9422809556394029e-23  -5.3397039273757554e-12 9.5049996268661193e-23 5.2807971596038655e-23  -1.3331728434778463e-11 2.3731292131832946e-22 1.3184654918795836e-22  -3.0753243171676080e-14 5.4742654058604762e-25 3.0413978265159681e-25  -7.8250663592846199e-12 1.3929096788285096e-22 7.7387414669131909e-23  1.1297226025280979e-11 -2.0109753389958240e-22 -1.1172596817559190e-22  -4.4101395681826882e-12 7.8503182049280991e-23 4.3614876071530369e-23  8.3997533756110703e-12 -1.4952074831644936e-22 -8.3070886271216457e-23  -5.9684754717869214e-12 1.0624251438632651e-22 5.9026321959516708e-23  -1.1434173126053253e-11 2.0353527606552415e-22 1.1308033139611904e-22  2.6636091391203306e-12 -4.7413872038217089e-23 -2.6342246250859809e-23  8.0107230538543068e-12 -1.4259577061463337e-22 -7.9223500262414760e-23  -6.6454298903771448e-12 1.1829271713842497e-22 6.5721185606440730e-23  6.3342343631327336e-12 -1.1275324639141257e-22 -6.2643560931543527e-23  -2.5893416729322889e-12 4.6091865709764049e-23 2.5607764658189310e-23  1.5402598439743270e-12 -2.7417567418289209e-23 -1.5232679413948232e-23  5.2115434675096742e-12 -9.2768661685744042e-23 -5.1540505456269104e-23  -2.2966292159319684e-12 4.0881404919413702e-23 2.2712931662705915e-23  4.4799179467142954e-12 -7.9745279871420362e-23 -4.4304962016674847e-23  -7.5941596611380809e-12 1.3518068740742693e-22 7.5103820948786781e-23  -1.1474718565766164e-11 2.0425700969454905e-22 1.1348131288457405e-22  1.1695809125570634e-11 -2.0819255690283386e-22 -1.1566782812232895e-22  -1.5698399389051216e-12 2.7944111202558628e-23 1.5525217134046363e-23  2.7675285256416696e-12 -4.9263700687040548e-23 -2.7369975893988848e-23  1.0075906881120963e-11 -1.7935730603786541e-22 -9.9647510727072406e-23  9.7519384031314453e-12 -1.7359046895422187e-22 -9.6443565636414491e-23  -1.1048650278118715e-11 1.9667273354330786e-22 1.0926763318658433e-22  1.3017252880819751e-11 -2.3171506408937052e-22 -1.2873648609326880e-22  -2.6926864562336047e-12 4.7931466069779370e-23 2.6629811658435025e-23  -1.2894359617137218e-11 2.2952748882052801e-22 1.2752111084659645e-22  1.2779929780049615e-11 -2.2749056772225552e-22 -1.2638943619405981e-22  9.0055647330221310e-12 -1.6030456106048912e-22 -8.9062167696148099e-23  -1.2054517156570741e-11 2.1457777928066998e-22 1.1921533633064158e-22  3.0781614205664738e-12 -5.4793156234594992e-23 -3.0442036314396121e-23  -4.8748738641775534e-12 8.6775736801570418e-23 4.8210950280210904e-23  -4.7274881382415172e-12 8.4152180722280649e-23 4.6753352380636567e-23  4.7627184981692099e-12 -8.4779302679830172e-23 -4.7101769422420781e-23  -1.0311649823036034e-11 1.8355367461075801e-22 1.0197893335835224e-22  4.0116522350963693e-12 -7.1409863760830879e-23 -3.9673963231940509e-23  -2.6464548388225445e-12 4.7108514999423857e-23 2.6172595683113705e-23  -8.0846673057310843e-12 1.4391202353063181e-22 7.9954785368463374e-23  1.2469452506830234e-11 -2.2196388233625331e-22 -1.2331891482276680e-22  2.0073284655505375e-12 -3.5731674593861736e-23 -1.9851839359342293e-23  5.5457590362562776e-12 -9.8717903253132835e-23 -5.4845791011679734e-23  </DataArray> 
</PointData> 
</Piece>
</UnstructuredGrid>
</VTKFile>