<?xml version="1.0"?>
<VTKFile type="UnstructuredGrid"  version="0.1"  >
<UnstructuredGrid>
<Piece  NumberOfPoints="201" NumberOfCells="657">
<Points>
<DataArray  type="Float64"  NumberOfComponents="3"  format="ascii">-0.007544063098256951 0.01309643915206943 618.6690161854187  -0.001861359688088357 -0.01533616991134959 -618.6744934533775  1159.947225783328 0.03337351691391389 -588.556264645894  2206.158974729343 0.07014219706793545 -500.8850987968538  3036.17650261756 0.09053422903611331 -364.1428564222644  3568.928905988809 0.09787928852382741 -191.5869869719249  3752.476032891315 0.09775356050180747 -0.1877535463205914  3568.929640642241 0.09685836802746101 191.2110423765381  3036.174918119738 0.09582303533920794 363.7838209940472  2206.154811305343 0.08577629547056903 500.5859738788981  1159.946231864213 0.06000070852914127 588.3797697976031  1469.426697017106 -1091.443248307149 -539.063653191051  1459.950338830684 847.9056707398852 552.0024162756376  3571.775513650679 -971.4219625569798 -92.59460230645455  2572.005423625058 -1060.110303614251 411.8717628505997  3248.948024481304 982.7401153809444 260.8819771828391  3235.447561162284 982.7214401245022 -264.4934374605584  1640.852992296403 977.0128450280971 -530.2731578198934  565.3847170582487 -976.9504773131158 587.5409336907578  2555.360529798399 -976.8402648258971 -422.4182086184343  1778.698887592713 -1916.688988762826 -437.1604143788333  2642.617442736672 -1878.546165991896 -301.5198811546782  1811.929402065208 -2685.364288390003 -290.1466942156441  2552.910159696552 -2520.104347080117 -143.6664319651796  1601.815464801523 -3196.975763907102 -122.6527685373199  2280.820070209919 -2869.073983358673 28.66100087903367  1197.974405494699 -3415.602787709124 52.88994491356158  1737.773602572266 -2967.439682806389 206.7950686020038  625.9332442059352 -3325.258197178276 219.8145852254379  1112.164986885424 -2712.500436510421 364.7096595166076  -43.30373424890217 -2913.712679770221 365.3319434508656  2665.081404153243 -2331.140127919423 174.603054738499  2555.43202462238 977.0084510752591 422.1019105078928  2589.067449182049 1891.111906378542 311.5291002210244  3135.207708657223 1812.101192355157 141.4687327149304  416.0293248731991 -2165.08892348163 489.5234145116376  1523.658132494242 -1898.53434929336 461.7067278799889  1778.652732096479 1807.510918326533 450.3321546264  1713.720795532877 2644.008988974225 316.3362633688378  3578.616868409366 -947.7468833323134 91.05953765116635  3155.124864102307 -1958.5951018758 9.29242908685821  3256.085714357753 -983.4248915338526 -258.6736392104642  565.4558982396841 976.9971419774521 -587.6200767299226  2530.001425562157 952.4950244222343 -426.7466911124052  2569.252497380835 1880.930237041022 -315.4840725674909  777.3319906431227 -3226.071791699603 -252.2000295407279  -543.9852712665254 -3364.796473491875 208.0294046760964  758.8261994751234 -1965.985294222288 -506.0854255535741  3113.78811209968 1833.708356584328 -144.2444839516572  2328.516455020597 2648.96565997862 -173.2446583957519  1653.511890090033 2578.152974033395 -336.7709070729571  1305.374145544592 3210.590615578982 -186.4469969932053  576.7870685808959 3014.855621169517 -327.2972800696036  168.8912341255737 3475.769569927176 -168.7866016043883  -591.0979537432482 3101.887500777834 -301.8841012999238  -975.3445292702845 3413.542753561979 -126.7805727978084  -1719.066555523864 2915.366201866758 -231.0817800190319  -187.5267129013992 3615.074545794202 13.63504498427081  -1198.64084501889 -2801.041917009678 336.931017650955  -1655.500489688984 -3097.471933217337 165.9150029510609  -2018.338289969309 3029.574120152444 -61.04526612921662  -2666.252530026992 2369.838500750607 -158.2363772637806  -2840.031898215645 2364.548320281809 15.87409011235185  -3331.572185218463 1560.061835799185 -98.81725003661026  -3377.237679129622 1480.802207706268 94.30450487266805  -2959.879075465317 1478.70639902282 -283.3545772172611  -2731.18783692406 2188.087591501908 202.1809858745107  -3524.695055256947 646.6777060830353 -180.8775642147526  -3120.096676847969 1217.331817921831 274.8980719290436  -3000.557439386248 415.1282144350233 -364.5930054855046  -3369.258202475747 -469.8438742993984 -260.7456950972028  -2321.215058035275 1835.101628373023 373.2043767676204  -518.519669442657 -1500.225252304204 555.4033776142682  -2261.00082601945 -2395.503376100254 274.9493439444817  -2696.442200010175 -636.4577400506762 -416.9667603400826  -2912.943187736969 -1493.635216555032 -296.108615866967  -3605.583239645212 410.3721199684941 157.0623025129632  -1254.531379404185 2414.580642924747 -410.3882346636886  -2567.580146177123 783.5882140023665 431.9522801392268  807.2178206483479 2439.949646611522 439.3644120362017  -3474.020089003614 -1223.55701742542 -105.5545300836002  -2184.760001681357 254.0940948399003 -501.0560525590195  -1702.070096320101 1396.401890865723 498.5568573025792  -2099.333365629665 -1606.850528109561 -434.5236707412358  -2197.987851167551 -2392.317442353416 -292.1814286452926  -1852.235097198836 2693.781792978952 280.7236852812367  -945.7941441769864 -3495.661955937753 37.76605651043129  -1792.666947206052 235.0762345478214 542.5441205836798  -2648.602905305575 -339.7652187684282 434.6762678026332  -1268.823745582808 -2399.238776541549 -415.4290486967614  -1272.908474761967 -3058.459711545902 -258.2619282374258  -1093.460577639707 -1519.395746732077 -533.2359552100183  1902.622249052863 3118.814828304045 -15.68415959651883  -2558.711990020254 -2569.366831879285 108.3465890892386  -3080.967462722836 -1735.323710337705 191.1869135996335  672.1178215564253 3141.209706812876 289.2931193638863  -242.5323473525558 2833.113996789488 385.4578712686178  -83.98702150200954 2134.911415971819 501.4265751671692  -1016.793005119446 902.017992315696 576.2176764743261  -1695.572518263476 -1959.158146564697 437.7122224330341  885.0258141831906 2385.380341716461 -440.4465824756305  -2103.328571361367 -2892.288012327454 -136.8627572708165  -277.8779510870017 1829.982022426935 -530.4591133758745  -615.9188837916581 784.636995096866 -594.6801956913711  -417.4601806707407 3381.595181262982 212.3414110013525  -793.0954805583588 -555.4144633817127 596.8091457628968  -271.2692549990514 -2966.73103394559 -354.1461800571568  -1713.493568879514 -892.5600447935626 528.4536085272033  -2641.22550972182 -1436.828692829017 363.993901854278  -3287.98166402707 -690.656586581778 273.8906032400874  -3597.313511255017 -896.5556871471255 86.55551166929665  -3736.333606640999 -116.6998058146801 -53.69287843362529  -1441.487015699543 1554.763725050072 -504.5199933613241  -2186.125862887359 1719.676872235091 -406.9535504973645  -319.2088194906831 -3407.329788020529 -204.7268865519136  -127.5871340398938 2674.964539789825 -414.6407715267453  1496.414063388819 3182.716875928087 163.584155438617  3234.312474149157 -939.9680286445911 268.990077338034  187.512276003394 -1025.319118406378 -593.528240670203  593.0344816745562 -3531.005021053638 -97.5580018115508  -1142.768274988341 2312.587252786708 439.2499969362802  3587.100159691284 910.9782833177595 -93.41665848482489  2397.555970325367 2624.908486261943 160.7935524261638  2828.295832205069 2379.029346738953 -5.795574362026573  -2865.034157779889 -2151.650584709254 -157.7731263604995  -1243.145980275048 3404.099447345044 50.33631811957098  -2085.731214222887 2935.691925667487 115.1753921348109  -203.6275877336041 -2213.492138599569 -490.4227925752497  -874.7180301585483 -404.0819708535082 -598.0208216957268  -1843.912061038996 -648.4978218356154 -527.9559920214364  866.9517614195898 3517.482004523109 -29.5235620949206  101.4829122417527 -3596.496277702845 66.5832524603433  2072.178898671116 -2287.345686546074 335.1187313456884  3593.439461377725 922.6325477382898 83.61400050460527  1641.701354212278 -969.8569471271538 530.3537661964049  -3173.849512100745 -1929.519985110667 14.29379288912203  -671.8568902525453 -2388.679690398069 449.9801649378603  1828.664669088587 1752.330922047263 -448.7431742345694  -3215.338341592255 288.4802763822788 315.8820197363207  842.4014121553168 -2695.869701569281 -391.2024930133729  919.4201140430654 1738.655458418074 522.65546302198  534.6417570049366 3501.721006099699 132.2564032747431  -2333.875977321022 2269.443936807034 -288.9581927737307  3138.187090777554 -1744.89791057551 -163.1063314420392  -57.41153215282705 941.7288677768667 598.1904970072571  2842.533987979192 -1698.264826345225 279.9022952011475  -3643.316054618865 862.7076708068136 -13.38698646009833  -1939.628498340418 -3099.031910004314 4.177712188216097  -1184.560847604218 -3382.462623536323 -104.6256440930901  3366.437372341467 1599.35770236034 -3.526423031168429  -837.7000993720834 1783.705285134242 522.0931023779335  1042.545379399892 1619.87185887198 -524.8481332455392  -1265.472670107842 265.9264515356932 -580.4372092655551  -1371.868443514741 3167.387149846495 198.7913794909288  3191.648606435214 -1622.876344082096 169.1423335803006  -255.691291035462 -3593.520712196037 -64.35724420303096  -2406.932992229758 941.1232415463015 -446.0101728451047  -1645.104553023524 799.8395285580575 -538.4019110124467  -1049.306759478876 2912.484273377502 326.5638020840053  -2638.610947737315 -2566.282453091506 -36.06380147866128  0.0006245589772236907 0.0008760964929199584 1.089534603243682e-05  -1196.943335604881 -1416.727027891553 16.02902466266038  1809.880040517216 552.5489545379555 -2.48850235136182  -720.9617169900122 1489.060519818598 137.6515826031812  1349.005221683235 -1055.54209159112 123.0309658714258  -878.942846950445 154.4756851233339 -275.2866681619949  -1861.454076679592 281.1212829125197 0.5891407667419695  355.6964067169262 1684.352736934212 -116.9680264023197  1257.253228118812 -829.9913793360279 -186.1862314435369  -978.020678058472 -157.7449513330976 267.1393306562323  937.8497954713741 1253.332012520219 216.4945729645208  -346.3520008493268 -1430.264860591084 -235.2790261296222  309.6666618211998 -2065.567223191217 -0.5705209333039394  746.7358544314
[...]
<PointData  Vectors="Tidal Force"> 
<DataArray  type="Float64"  Name="Tidal Force"  NumberOfComponents="3" format="ascii">-1.8554706694866856e-13 1.1851693370066595e-13 6.3968583630822393e-14  1.8554222301009789e-13 -1.1851383966767545e-13 -6.3966913650829405e-14  1.1854570863946652e-12 -7.5720269376227582e-13 -4.0869420368022868e-13  2.0691949271008130e-12 -1.3216842606129976e-12 -7.1336869355816879e-13  2.7501654992396389e-12 -1.7566496064818664e-12 -9.4813782093026835e-13  3.1618324626047222e-12 -2.0195990942115309e-12 -1.0900627406130533e-12  3.2640928497696707e-12 -2.0849172246737354e-12 -1.1253176882447014e-12  3.0470311184803672e-12 -1.9462705123369507e-12 -1.0504842147795983e-12  2.5318637196762492e-12 -1.6172108216995168e-12 -8.7287683258696419e-13  1.7688513599663596e-12 -1.1298418390707425e-12 -6.0982325407388459e-13  8.3248897062869280e-13 -5.3174669781135234e-13 -2.8700610155228810e-13  2.0462540340302245e-12 -1.3070309203700438e-12 -7.0545966831144980e-13  6.3329168478793830e-13 -4.0451077914348946e-13 -2.1833151430126844e-13  3.6744083542735436e-12 -2.3470034771990536e-12 -1.2667766835094470e-12  2.7027481845715663e-12 -1.7263621175379735e-12 -9.3179038677905780e-13  2.2018364969808649e-12 -1.4064081659915471e-12 -7.5909775570574261e-13  2.3476535797730790e-12 -1.4995478411042254e-12 -8.0936916343420219e-13  1.0434764029504041e-12 -6.6651349277806445e-13 -3.5974542010620355e-13  8.5840404198165907e-13 -5.4829977431046647e-13 -2.9594049451469251e-13  2.8921994660081774e-12 -1.8473728418289731e-12 -9.9710497428421625e-13  2.7432289792064707e-12 -1.7522189512394867e-12 -9.4574640958033116e-13  3.4328459816939025e-12 -2.1927071459963774e-12 -1.1834964512398871e-12  3.1551381395000863e-12 -2.0153231406186754e-12 -1.0877548282627647e-12  3.6639357590838033e-12 -2.3403141778736175e-12 -1.2631661867646396e-12  3.2063966974546835e-12 -2.0480641977240259e-12 -1.1054265565484027e-12  3.5694644251404585e-12 -2.2799712524601191e-12 -1.2305965669616917e-12  2.9239466394002035e-12 -1.8676511340486356e-12 -1.0080500231581599e-12  3.0983332718820995e-12 -1.9790394157392159e-12 -1.0681709728851731e-12  2.3261028970722665e-12 -1.4857824883295416e-12 -8.0193942244546632e-13  2.3651353540745474e-12 -1.5107142061668990e-12 -8.1539612122884080e-13  1.4716611968413976e-12 -9.4001363300529506e-13 -5.0736497156502549e-13  3.5610698795975246e-12 -2.2746092932876015e-12 -1.2277024916338698e-12  1.5534123480982222e-12 -9.9223162778577106e-13 -5.3554922390642707e-13  1.1079492253257279e-12 -7.0769507188146779e-13 -3.8197285381267130e-13  1.6779112572410153e-12 -1.0717544637073092e-12 -5.7847104968581360e-13  1.4180291089871837e-12 -9.0575649973460515e-13 -4.8887495308283090e-13  2.2417311750487215e-12 -1.4318906217012112e-12 -7.7285171092786637e-13  4.0783540795570143e-13 -2.6050210763418796e-13 -1.4060396550834329e-13  -7.3225819372484603e-14 4.6772496717216215e-14 2.5245087553769533e-14  3.6121298360707234e-12 -2.3072234950403421e-12 -1.2453057507397958e-12  3.8299133142070553e-12 -2.4463312182927099e-12 -1.3203880512238522e-12  3.4562809564986977e-12 -2.2076760776043615e-12 -1.1915758144458895e-12  1.2524971962124326e-13 -8.0002411035063821e-14 -4.3180672678297200e-14  1.7994795835485660e-12 -1.1494054096696016e-12 -6.2038253756945134e-13  1.2844090635158610e-12 -8.2040759969197717e-13 -4.4280855497667670e-13  2.5442351387856835e-12 -1.6251129819572247e-12 -8.7714196148901662e-13  1.3339431793393066e-12 -8.5204718105271356e-13 -4.5988577038481641e-13  1.9041570960602678e-12 -1.2162674625940607e-12 -6.5647080521759316e-13  1.7329529312192872e-12 -1.1069119605782311e-12 -5.9744703234596327e-13  6.0561341979525613e-13 -3.8683147463583764e-13 -2.0878924862142196e-13  1.0684275305278112e-13 -6.8245085671207130e-14 -3.6834748705000633e-14  -5.9244759476023511e-13 3.7842189296768964e-13 2.0425024300052196e-13  -1.0752187324038598e-12 6.8678869096473616e-13 3.7068879900015414e-13  -1.7336553023120312e-12 1.1073605953618521e-12 5.9768917944494426e-13  -2.1470806153782607e-12 1.3714332170670641e-12 7.4022030186517820e-13  -2.7069914747594536e-12 1.7290724904376415e-12 9.3325328925290191e-13  -3.0458443535305587e-12 1.9455124742542814e-12 1.0500750696813198e-12  -2.1757809514093493e-12 1.3897653625357089e-12 7.5011493332354191e-13  4.1261153138636037e-13 -2.6355282416280965e-13 -1.4225056578141445e-13  2.3120118797702512e-13 -1.4767819463602103e-13 -7.9708145064590841e-14  -3.4206101928644468e-12 2.1848916186624040e-12 1.1792780817776381e-12  -3.5884962597845326e-12 2.2921277080797485e-12 1.2371579183540816e-12  -3.7889384378379426e-12 2.4201587932261664e-12 1.3062616904632951e-12  -3.7351174363794749e-12 2.3857809926688482e-12 1.2877065427613748e-12  -3.7887156166636931e-12 2.4200164677086040e-12 1.3061848713836184e-12  -3.3112631235706399e-12 2.1150469179351136e-12 1.1415799534162705e-12  -3.6520777974628584e-12 2.3327399851129018e-12 1.2590780757418425e-12  -3.3710131058395825e-12 2.1532118148727903e-12 1.1621791566295898e-12  -3.4728181627788898e-12 2.2182391062338899e-12 1.1972771261418985e-12  -2.7313419539541009e-12 1.7446261942808278e-12 9.4164827867757608e-13  -2.5915022913580662e-12 1.6553045558784124e-12 8.9343762626044495e-13  -3.1506332766293844e-12 2.0124456899375210e-12 1.0862017468693001e-12  2.1595246935662554e-13 -1.3793817878196291e-13 -7.4451048046712520e-14  -7.1821561580853760e-13 4.5875536553273574e-13 2.4760960353806722e-13  -1.8668345493734251e-12 1.1924279384023458e-12 6.4360360937173789e-13  -1.6151435012425597e-12 1.0316619842165579e-12 5.5683144893687227e-13  -3.4114260853344988e-12 2.1790253321124374e-12 1.1761117997109615e-12  -2.3097546043963294e-12 1.4753401269866426e-12 7.9630323996918320e-13  -2.7983190925704491e-12 1.7874073884403138e-12 9.6473909204041081e-13  -7.8526541350344614e-13 5.0158297018707896e-13 2.7072546660079646e-13  -2.3103988482262260e-12 1.4757516333743777e-12 7.9652534730824855e-13  -1.8913303467251919e-12 1.2080744632352467e-12 6.5204869819620130e-13  -2.4059067850236906e-12 1.5367566818478415e-12 8.2945234282969281e-13  -8.0300876048772930e-13 5.1291641303123872e-13 2.7684260331505575e-13  -4.9509896130592388e-13 3.1624111195784012e-13 1.7068865508174798e-13  -3.1920441074698535e-12 2.0388965779732084e-12 1.1004784058292242e-12  1.1082059540699722e-12 -7.0785905562996364e-13 -3.8206136275229884e-13  -1.8526660290542805e-12 1.1833778919051667e-12 6.3871891789229268e-13  -2.2454610077481198e-12 1.4342730271038875e-12 7.7413759552245539e-13  3.5394174741867279e-13 -2.2607789658201174e-13 -1.2202376810652813e-13  6.6952434529638481e-13 -4.2765414591234425e-13 -2.3082296464870480e-13  5.2958780392893696e-14 -3.3827062685011909e-14 -1.8257891263171417e-14  -7.3148316355354231e-14 4.6722992189368395e-14 2.5218367873881966e-14  -8.3061921034042256e-13 5.3055240107702366e-13 2.8636148927500060e-13  -1.7731430895399530e-12 1.1325831523003152e-12 6.1130285634765837e-13  -1.2474062167746815e-12 7.9677228167763476e-13 4.3005157781035761e-13  -1.9006743042279720e-12 1.2140428528738993e-12 6.5527008960264591e-13  -1.4096054998128271e-12 9.0037597636414558e-13 4.8597085787505113e-13  -1.5584306684574136e-12 9.9543704596391736e-13 5.3727932317914699e-13  -5.1762811959800726e-13 3.3063145939660268e-13 1.7845573202906438e-13  -4.2342320227604658e-13 2.7045870579758032e-13 1.4597796112572974e-13  -1.8155081762788402e-13 1.1596435648351286e-13 6.2590850136619841e-14  -1.0993851419328224e-12 7.0222482155428391e-13 3.7902032918509539e-13  -7.9336932273214015e-13 5.0675928738016640e-13 2.7351934312903995e-13  -2.3056614763041328e-12 1.4727256691096796e-12 7.9489210687512101e-13  -5.6025477901970892e-13 3.5785894971290229e-13 1.9315155596722482e-13  1.5185941176524051e-12 -9.6999171865013892e-13 -5.2354540771693868e-13  -1.1530462934184598e-12 7.3650051902291663e-13 3.9752036754724780e-13  -1.6083087039193753e-12 1.0272963036669787e-12 5.5447510716678772e-13  -2.5584520984905354e-12 1.6341939687843086e-12 8.8204335276839162e-13  -2.6569439014475200e-12 1.6971049415799134e-12 9.1599905596550722e-13  -3.1691032143992654e-12 2.0242432377302540e-12 1.0925693805825051e-12  -1.9664162385088052e-12 1.2560350686208105e-12 6.7793505806727240e-13  -2.7350281912063642e-12 1.7469807533865896e-12 9.4291913345222832e-13  1.6768794983254673e-12 -1.0710954346803351e-12 -5.7811534394731035e-13  -1.4728818693612010e-12 9.4079332931889817e-13 5.0778580652325476e-13  -5.1575835930973712e-13 3.2943716266227400e-13 1.7781111975177688e-13  3.2549571816254292e-12 -2.0790818784536745e-12 -1.1221681059779549e-12  9.1077670580750442e-13 -5.8175245900362925e-13 -3.1399631819871418e-13  2.5069755633002598e-12 -1.6013136801943863e-12 -8.6429647538306989e-13  -2.4106635327000670e-12 1.5397950222445014e-12 8.3109226318279200e-13  2.6421020736670544e-12 -1.6876248244970564e-12 -9.1088223726703853e-13  5.7886034706956760e-13 -3.6974313042936907e-13 -1.9956594912023330e-13  1.1401129774348301e-12 -7.2823945093831213e-13 -3.9306152096601051e-13  -1.2493534800800820e-12 7.9801608293981107e-13 4.3072290976753271e-13  -2.9878042815770551e-12 1.9084397709622464e-12 1.0300653694055199e-12  -3.4799193767234591e-12 2.2227749585979462e-12 1.1997253168115968e-12  1.1997806127480713e-12 -7.6635174931515076e-13 -4.1363233451944930e-13  -3.5701280447246355e-13 2.2803951349798152e-13 1.2308253542207289e-13  -1.0852795928150956e-12 6.9321499748598101e-13 3.7415734744555861e-13  -1.1913812232665675e-12 7.6098669610964345e-13 4.1073658921163442e-13  2.0665598245183805e-12 -1.3200011066661719e-12 -7.1246022444199166e-13  2.9728607310866065e-12 -1.8988946791865894e-12 -1.0249134811271989e-12  2.5880485631571942e-12 -1.6530985103561939e-12 -8.9224693052545532e-13  1.8078402215215046e-12 -1.1547457106111852e-12 -6.2326492303732248e-13  -1.6929952819500126e-12 1.0813892824396910e-12 5.8367136738393077e-13  6.0781741184490087e-13 -3.8823925964650997e-13 -2.0954908951822460e-13  7.5162426013029629e-13 -4.8009491106813545e-13 -2.5912745554960044e-13  -3.0518702131124446e-12 1.9493614512944489e-12 1.0521525247925782e-12  2.3479345282101763e-12 -1.4997272950176738e-12 -8.0946602227379467e-13  -3.2299866782937390e-13 2.0631321383877058e-13 1.1135593591141802e-13  -1.5202071491964308e-12 9.7102203163597164e-13 5.2410151105459864e-13  -3.2043961508250062e-12 2.0467863620989542e-12 1.1047368548113049e-12  3.7481476311345170e-12 -2.3941039414132617e-12 -1.2921987889424715e-12  -7.5256882815157259e-13 4.8069824750128080e-13 2.5945310164823017e-13  3.3322131578886925e-12 -2.1284286106189764e-12 -1.1488026168858776e-12  -3.6444534381526575e-12 2.3278699771858727e-12 1.2564495272329035e-12  3.3418332198899995e-14 -2.1345733601380873e-14 -1.1521191971519216e-14  8.8031802007527026e-13 -5.6229717955943672e-13 -3.0349548400290134e-13  2.0407271001211152e-12 -1.3035006287278962e-12 -7.0355422113946789e-13  -1.8762850735247596e-12 1.1984643967667891e-12 6.4686174033802793e-13  1.6422889329924701e-13 -1.0490009450952561e-13 -5.6619001681749169e-14  -1.0744582340482682e-12 6.8630292778522959e-13 3.7042661214125749e-13  -3.0127747849087447e-12 1.9243895110282156e-12 1.0386741162692946e-12  3.6272187047182924e-12 -2.3168614078057136e-12 -1.2505077384179059e-12  1.7934876315366747e-12 -1.1455780908603675e-12 -6.1831677231814413e-13  -2.4828091537712969e-12 1.5858775496048384e-12 8.5596494519812865e-13  -1.7139307844523532e-12 1.0947616930245826e-12 5.9088902091355911e-13  -2.6288829653077560e-12 1.6791812084660130e-12 9.0632486186621597e-13  -8.5852029650735450e-13 5.4837403110223812e-13 2.9598057403452386e-13  -0.0000000000000000e+00 0.0000000000000000e+00 0.0000000000000000e+00  -2.5882132570685962e-13 1.6532037074778707e-13 8.9230370984521645e-14  1.2680607708399243e-12 -8.0996523834907809e-13 -4.3717237250039358e-13  -1.4957452594146590e-12 9.5539716503400412e-13 5.1566811209008605e-13  1.7230034813951773e-12 -1.1005568168157679e-12 -5.9401689344039711e-13  -7.6781754677197234e-13 4.9043826335533897e-13 2.6471019866610851e-13  -1.7755553709481361e-12 1.1341239807295785e-12 6.1213450638415887e-13  -5.9136739645898060e-13 3.7773192361081069e-13 2.0387783746208899e-13  1.6106095747404332e-12 -1.0287659693374608e-12 -5.5526834766344981e-13  -8.4319891880839526e-13 5.3858760475332277e-13 2.9069842731675100e-13  5.4499152858359749e-14 -3.4810965175987278e-14 -1.8788944900936762e-14  5.6395554808768404e-13 -3.6022279091763564e-13 -1.9442742068185602e-13  1.4171862636758912e-12 -9.0521813799426020e-13 -4.8858437656405357e-13  4.3659387124963830e-13 -2.7887138149871887e-13 -1.5051863672662273e-13  5.6782101106706113e-13 -3.6269182924404555e-13 -1.9576006471624832e-13  5.8032321651790324e-13 -3.7067752839249663e-13 -2.0007028307811107e-13  -1.9416782442285065e-12 1.2402338421383852e-12 6.6940647024316032e-13  -1.1522664193085855e-12 7.3600237971144795e-13 3.9725150076837920e-13  1.5329757712686589e-12 -9.7917790259889957e-13 -5.2850357831607485e-13  -8.6710375565454271e-13 5.5385665756138400e-13 2.9893977858207162e-13  -9.1630363971661374e-13 5.8528275064577661e-13 3.1590176537069609e-13  7.2896915943537590e-13 -4.6562411877162034e-13 -2.5131695912246681e-13  3.7385033494403570e-13 -2.3879437217291991e-13 -1.2888738587764626e-13  -2.1325633314820291e-12 1.3621604001945696e-12 7.3521537182623878e-13  2.3692042624738918e-12 -1.5133131938789095e-12 -8.1679890442293795e-13  -1.1101435294982312e-12 7.0909666882615905e-13 3.8272935474948791e-13  -1.5164434089270375e-12 9.6861796800236202e-13 5.2280393660005880e-13  1.8462865619567364e-12 -1.1793030504566929e-12 -6.3651955424154736e-13  2.3959088958138742e-12 -1.5303705977554733e-12 -8.2600550412419708e-13  -2.0769210091209965e-12 1.3266192432328270e-12 7.1603231164696045e-13  9.1568845951814115e-13 -5.8488980845598460e-13 -3.1568967791158857e-13  6.5577240369431535e-13 -4.1887018625234715e-13 -2.2608189144865514e-13  6.8211858558006949e-13 -4.3569863168761466e-13 -2.3516491263043411e-13  1.8489265084777396e-12 -1.1809892984365095e-12 -6.3742969333771758e-13  -2.6293431394719675e-12 1.6794751416001094e-12 9.0648350996554829e-13  1.8194559862139180e-12 -1.1621652017223768e-12 -6.2726953506047115e-13  -1.7756619375966907e-12 1.1341920494553692e-12 6.1217124594400420e-13  -4.6146749580991532e-13 2.9475924090487782e-13 1.5909398399053796e-13  1.1515107648915648e-12 -7.3551971056493174e-13 -3.9699098388947555e-13  -3.8526265421648227e-13 2.4608391389851113e-13 1.3282185874109015e-13  4.0137843784102789e-13 -2.5637776165786666e-13 -1.3837788217771060e-13  </DataArray> 
</PointData> 
</Piece>
</UnstructuredGrid>
</VTKFile>