<?xml version="1.0"?>
<VTKFile type="UnstructuredGrid"  version="0.1"  >
<UnstructuredGrid>
<Piece  NumberOfPoints="201" NumberOfCells="657">
<Points>
<DataArray  type="Float64"  NumberOfComponents="3"  format="ascii">-25.79009617217707 53.49446231080994 167.9381907525042  -2.220053189974262 -55.50483389986894 -169.4266208310356  2370.899209914734 36.03531104163708 -228.0505750031747  4003.060654768398 97.72524331280871 -279.3085244623887  4902.64463769995 129.4037267366509 -292.0961417068125  5357.647117460199 140.2162642727176 -214.99445230913  5499.307557195527 141.2630719923987 -83.80629755201828  5359.062746865955 141.7247320353423 45.7632978019527  4903.527121845325 146.747599216354 126.1098893717322  4004.85879303842 151.7479537261684 135.0901132710756  2358.268090404315 126.6306562851566 141.2874864370726  2743.085388428179 -737.1210264132005 -489.9259949643158  2884.435548016526 756.3519749923004 337.5372082786055  5270.962947823085 -579.9359569685197 -299.0321605102909  4305.44733095746 -634.9507476682643 -79.44125375984538  5040.357457423625 875.1305159554287 256.3083141418094  5046.719964458823 870.3479168287311 -78.90042993768166  3186.673269556382 794.9949115655005 -30.07004104057504  1107.017199878306 -634.1618857519461 -87.40332280215024  4276.584787933451 -604.6904260607645 -473.2394344527415  3012.623505299767 -1273.348690623923 -626.0089056999234  4152.020163554917 -1220.688488503501 -564.4516911414174  2840.840903107498 -1744.392401435643 -662.2486299715664  3843.967437302278 -1630.206978310353 -549.8909996340417  2402.192662665075 -2038.996314732385 -616.5492076164894  3410.768254592181 -1842.2890024047 -489.1991692198883  1747.881620637492 -2167.0848309382 -545.747114157997  2672.520513794652 -1905.185386544945 -435.4938636912269  860.1800894489768 -2139.613283225302 -478.1135941192814  1795.13425327819 -1771.177493940828 -389.9379564032739  -247.324373356569 -1952.80616608464 -400.1429493667035  4054.118624152437 -1510.132231453924 -348.1200844735794  4362.341777599455 868.7013541478535 331.7957455711443  4231.569426254867 1494.249532365808 444.3769718081949  4795.001849555752 1454.895684649745 307.8959401952221  657.9195216530914 -1469.658941162917 -313.7158088509852  2686.841430306431 -1239.057948562755 -264.886337664784  3224.719418408428 1414.581657511656 510.2104829423126  2956.605344289881 1918.666424830148 580.689163908183  5286.091973739371 -562.6192012741623 -169.1874736087619  4674.355113962358 -1267.147175107038 -373.4629972518401  4999.433344312636 -592.0588435355101 -409.5801838259531  1235.146104946832 718.0509930422932 47.85713562660253  4368.071966955552 823.1796665281207 -91.57269509564223  4239.182324075335 1480.616994895673 97.1134586312204  1119.611903189826 -2082.716626667599 -690.0404321903369  -1094.208076845693 -2237.756477643695 -456.0891970346577  1329.343693880302 -1359.36505021919 -626.1813613257605  4781.521128605607 1470.427529291537 127.507093007008  3765.495083290561 1956.549255263152 274.3572245420551  2935.551899095927 1868.267714162116 267.7852221956595  2279.224421329285 2205.075401315656 403.111845445391  1160.117978394322 2042.120762272077 391.1556182529347  439.5953806148307 2265.312621300103 486.9584288403044  -865.4602925015848 2021.003972477773 441.4817118316593  -1437.363131483085 2177.665929984479 516.7698696481157  -2675.171958944509 1884.006190421697 427.3677230708173  -145.9097902310793 2316.222163418896 583.6855437929821  -2221.570242023792 -1980.143140790219 -332.4218577017394  -2797.482438083462 -2184.97846930336 -380.6127630933618  -3037.712265678716 1947.595496295753 499.1782607225589  -4036.010652177532 1545.233457987253 363.0161765364138  -4212.107725032006 1541.892989802105 450.0721938303388  -4938.445588005562 1002.357852722618 260.8721333527853  -4985.187357943058 948.0451910202587 374.5422010614685  -4609.699862207152 942.9700769354224 174.1203293282159  -4144.906068991654 1429.20272318699 551.5317902041372  -5259.598729166898 344.5971719210416 67.39139908875583  -4802.046522857783 765.3414028764298 456.767553636208  -4832.061295682242 164.7439643135542 -45.92348473662192  -5170.63555497472 -499.4996570113477 -169.452886719545  -3781.664726183325 1206.001910674263 597.9482175754314  -1176.768329776008 -1089.70695461158 -161.8793099438327  -3753.053111339284 -1804.245217550195 -215.7100814400526  -4537.312899007949 -626.1736786080855 -265.375141271973  -4640.785939934622 -1239.08062827091 -368.5988598370629  -5340.35457339705 169.6785153399067 261.393575727323  -2113.730932540826 1590.955456571581 347.881511233184  -4317.917339203047 468.8314211238935 446.1370511845702  1582.356848416808 1743.083627295833 637.1203722500507  -5188.511671073452 -1053.085882145544 -192.4579626968297  -3941.87407254013 38.97435309517763 -85.0486079023562  -3037.346312004848 940.2293084804194 554.3270755958156  -3689.224097673141 -1299.331564784625 -465.5994003558074  -3645.47474699983 -1801.67650102917 -519.4866599603631  -2897.356934667571 1758.771191975831 663.3530018508116  -1696.957198567274 -2340.035289045786 -512.8495973618626  -3396.515615762057 102.5749502722604 311.8799503485224  -4516.744554998015 -374.5031164595563 223.4240401487997  -2351.985453985618 -1759.887255176897 -611.8663735066993  -2246.019649038982 -2135.506656861722 -622.1608796349531  -2193.402639087511 -1201.540693970558 -493.9361474211641  3123.503156444684 2196.603555174537 433.6611316732389  -4037.927784108412 -1926.735532172579 -286.7637991832813  -4777.781310878411 -1405.200267420053 -94.74766836331443  1283.725099797215 2125.573198208145 662.1369341958946  -295.0130773266816 1899.537950952837 700.0914843290046  -42.09640231016225 1508.41319242476 634.7443289361681  -1988.332688462949 637.6796950713568 437.2646104138095  -3116.167646043566 -1490.23048435688 -161.4335971962327  1760.309155424553 1698.594810897078 288.0826276296928  -3405.907412814468 -2097.080443564698 -494.856971291731  -423.3002672366451 1258.015996488089 254.0552698635806  -1224.785062963274 493.4360733012902 43.70656020622569  -540.4595915279211 2183.886944293688 675.8925189465828  -1702.929664184281 -429.0225585651963 62.69327177208211  -630.2422896425111 -2009.107206483221 -692.0439405238483  -3289.24575555864 -739.2909473822514 50.46607307930389  -4410.3904397682 -1182.024724322949 -12.74597747875668  -5096.800128654298 -657.723189256705 135.785067115108  -5326.54851356882 -815.7975161406555 -0.6483009171400695  -5466.940280620389 -229.9898035713878 25.28000979254008  -2629.450343896348 1012.09325783443 204.5115607970756  -3674.368528581619 1110.619466699924 217.6766899900267  -710.5440158827187 -2245.998673616375 -658.1447803824639  -84.51063918290461 1799.883153690195 372.0507590557971  2540.289742860944 2203.753398152824 563.1623475809668  5001.020857575933 -553.0634788187168 -80.81313133934971  308.4358526966426 -781.8498216697388 -427.1909267782908  775.94384211524 -2252.392908198549 -628.5934808496248  -1929.194101670105 1556.45605262282 677.5500441031891  5336.937855132488 824.1985271740554 -4.163496755766389  3833.399779733224 1945.92785128135 460.1728276162666  4367.418335101395 1815.943484241451 299.5913351016623  -4454.939477517971 -1674.411264683538 -379.8218563983361  -1841.84400920712 2169.654937917242 598.1048655924535  -3141.543875043968 1893.796473887307 587.5365510719668  -514.4136855938627 -1577.750410911353 -637.6540830029496  -1818.984784676885 -410.7596991076612 -248.7061118093242  -3479.381305665022 -624.7611808421061 -289.1372319298799  1557.068938349263 2335.028261138332 519.7910232352905  -30.30051268311307 -2314.579643194708 -543.5106351454261  3346.884457848936 -1486.053295039595 -315.5762049753859  5336.512194590066 832.5080213208851 123.8154810278235  3062.696392612951 -582.1582908355499 -78.87449553075673  -4818.247186579233 -1538.100779088847 -222.5147600816152  -1405.968654850002 -1689.178310930565 -304.5571007158254  3360.041223944436 1353.434088967753 113.6043615929399  -5026.05383405873 82.79086198457217 327.3783638866791  1326.838374707004 -1788.103434298699 -701.1499749791473  1849.976021296387 1329.541347561617 536.652525083046  1024.885910661399 2303.598709052422 614.9989370308374  -3695.979313388706 1479.514575178302 317.5672604769818  4712.938938432034 -1123.527892599819 -457.651888239336  -64.95796417648343 734.1596881856112 401.479756125249  4442.953204190871 -1091.350198080427 -215.1999811825373  -5321.572089200127 506.1347445983158 208.5902278810214  -3155.082611506759 -2205.693984254804 -442.4166479145298  -2062.362588313862 -2301.526562104709 -568.4811613062277  5051.151219805885 1314.751538223924 168.0453528321835  -1510.867433279981 1244.520183108023 603.075207782682  2135.67418721297 1208.54445496278 147.4020567302014  -2529.075459266137 70.30209683715404 -74.11429966864063  -2088.221657817919 2039.018694951742 661.7893487562087  4806.274222212234 -1038.856894871589 -235.607944003551  -606.0881016930116 -2337.74131574627 -598.3352584414693  -4143.016735190866 553.2319948189124 65.79919780966533  -3089.334020830437 459.5309729381717 47.16761508533874  -1647.327590943462 1905.884053035956 701.9394890714333  -4115.480047509276 -1926.896885021021 -364.1224860825514  -9.970237754756877 -1.12426432850815 -0.299749206060727  -2409.272865457306 -1115.83849161655 -277.5472044908281  3471.016019778342 525.3868173814612 65.01909370936551  -1355.203829291321 1041.113438268144 413.358789979525  2581.719420701083 -682.2812230545193 -247.8295253885971  -1833.266500706938 30.62879608565007 -9.399192970139168  -3511.864195078759 98.24444482595345 126.4460683774518  823.2509786093011 1230.776161757318 336.3596994183069  2461.262308292058 -542.7343406375759 -299.9318772617884  -2041.258432558839 -166.9634171000139 77.4121592401587  1950.730226607878 996.4803475007869 329.1209192021718  -799.8704158538843 -1080.183773483037 -395.5160776434354  471.0815049898395 -1437.162418721564 -461.7548909860939  1602.022817845351 438.9281987171209 18.01639935814354  -709.9276172985
[...]
<PointData  Vectors="Forcing"> 
<DataArray  type="Float64"  Name="Forcing"  NumberOfComponents="3" format="ascii">-2.2816685014599441e-06 2.3970011363412272e-05 -6.1974159646069625e-05  2.0169498175900752e-06 -2.2983245471267722e-05 5.8809171648873201e-05  6.8277535008911180e-05 -2.0978061457574413e-05 6.0666327225149088e-05  1.1312492965622090e-04 -1.3777868763868486e-05 4.4657539247656527e-05  1.3694847746153222e-04 -4.6473764494056375e-06 2.0529893837289370e-05  1.3729872091994359e-04 -7.7330942767538946e-06 4.3216376892752414e-05  1.3436643653153709e-04 4.3647971969279531e-06 -9.8615375509354128e-07  1.3921536347008689e-04 1.3398170012489514e-05 -3.4302441222528692e-05  1.3260775327877426e-04 2.1430835019674543e-05 -5.6382418576439151e-05  1.1041454785854274e-04 2.4417405006415930e-05 -5.9064858221852399e-05  6.4665403625607240e-05 2.2696795009748565e-05 -5.6408572439922354e-05  7.7112292602190174e-05 -2.8715642958623682e-05 1.5337240399999185e-05  7.8671094239724957e-05 4.0305787706880295e-05 -5.6297837593021511e-05  1.2167806017868972e-04 -5.7757993599029504e-06 1.7234301101445556e-05  1.1878020699716061e-04 -5.0247522904108594e-06 -3.5474079231341051e-05  1.2961773614351320e-04 3.4321760377119442e-05 -5.9436086927265582e-05  1.3784164527862709e-04 2.8830056691434250e-06 5.9688624255291097e-05  9.1856323846638507e-05 -3.6001991010619785e-06 7.5759586636691363e-05  2.9571842239983477e-05 2.3958676777131198e-06 -6.1568363574094229e-05  1.1858861701494631e-04 -3.3074522208008026e-05 5.4967792333628203e-05  8.3643787658981019e-05 -4.6185876327602673e-05 4.4944379694773353e-05  1.1109582278684258e-04 -3.6278616945131200e-05 4.2500985511677680e-05  7.7453934528919736e-05 -4.4687425481940365e-05 6.7725335155016261e-06  9.9082750554889260e-05 -2.6324600089596721e-05 3.8843616537847101e-06  6.3627754123180981e-05 -3.6588860011396681e-05 -1.0596525738874398e-05  8.9803504678402890e-05 -2.4256714371730427e-05 -4.0218279095056162e-05  4.6007961374504631e-05 -3.5879268453019092e-05 -4.0505182757586258e-05  7.2624703421841677e-05 -3.4777421930069384e-05 -5.0857009431692363e-05  2.2611953809887725e-05 -4.0013630493191352e-05 -5.7829080113187736e-05  4.8589807646857587e-05 -2.6511699575129875e-05 -7.7327265213575805e-05  -8.6431994121049420e-06 -3.3670385739764377e-05 -6.6986458529121477e-05  1.0930380193312461e-04 -1.8468729766505787e-05 -5.8475138410875607e-05  1.1980917650650523e-04 3.6196632680510606e-05 -4.0857239704454730e-05  1.1308931905417856e-04 4.5156100642303735e-05 -3.6548329577023783e-05  1.1931808227719557e-04 3.0657676108459408e-05 -3.1571211852779968e-05  1.6717426144078259e-05 -2.1833181909621741e-05 -6.3047951313447933e-05  7.3539946546710629e-05 -1.6764152527186601e-05 -5.7528707985165863e-05  8.7930376618309503e-05 4.7764552082453754e-05 -2.7976822381094759e-05  7.8671117514357111e-05 4.8379064564446697e-05 -2.6147220741887136e-05  1.2959442597533646e-04 5.0896839257403752e-06 -4.2618369512513684e-05  1.1828793707619746e-04 -9.9459882077758977e-06 -2.9158126073632102e-05  1.3072768480752264e-04 -2.5721780087406424e-05 5.7293863517007941e-05  3.6686969490292822e-05 -1.5464565550437812e-06 6.7651892994637579e-05  1.2362572213200411e-04 4.8968223858474807e-06 4.9878846364768925e-05  1.1906739829594832e-04 1.9229022016251766e-05 5.9590074307180231e-05  3.0279096039788999e-05 -4.8529843697119610e-05 7.5576088227049918e-06  -3.2068223964437408e-05 -4.2519141242170436e-05 -5.7054688825352551e-05  3.8166743004440390e-05 -5.0802425444819239e-05 4.0818998652647232e-05  1.2967148558698589e-04 2.1922504317150548e-05 4.0293583046686589e-05  1.0490891173230207e-04 3.1455221759559415e-05 5.3466531789118837e-05  8.3650999844974677e-05 3.0754990414337007e-05 6.0484795090496601e-05  6.4788607814031857e-05 4.0467932015090780e-05 5.4445522335610845e-05  3.3884375838585388e-05 4.0261357359580688e-05 4.8446295214218851e-05  1.3754268903985957e-05 4.0751205699411406e-05 5.6489124758544926e-05  -2.2691331691848592e-05 3.6793906671948455e-05 6.2145668208333875e-05  -3.7758793383731691e-05 3.5071559342140588e-05 5.5825115918771199e-05  -7.3038517909354564e-05 3.3061236402787985e-05 5.2903763534297513e-05  -2.5449729596818340e-06 3.6196824189514973e-05 3.0790989280520623e-05  -6.3076147124836108e-05 -3.8254261299798432e-05 -5.2844455824537930e-05  -7.8725837573989091e-05 -3.7724119041665895e-05 -5.3834931380224538e-05  -8.1017972455911045e-05 2.9697031900223403e-05 4.4323365701786842e-05  -1.0905823867765255e-04 2.1554075239169930e-05 5.3009201665301639e-05  -1.0808076030415258e-04 2.0649078924539469e-05 2.0338272303031229e-05  -1.2808629256314116e-04 6.5908608376153381e-06 4.0157368607452804e-05  -1.2526026882338288e-04 1.4075167810024245e-05 -7.0823439759028726e-06  -1.2619876662106088e-04 7.4380096041988828e-06 5.3464928803290940e-05  -1.0796372541978858e-04 3.0965767376470492e-05 -2.1653711324228206e-05  -1.3499137849714058e-04 -1.0798707566040133e-05 6.1250230532305686e-05  -1.2609178543457672e-04 2.5859840366049691e-05 -3.9845517572665785e-05  -1.3290388779353527e-04 -7.2964295558604168e-06 3.5331346524534102e-05  -1.3463410548178350e-04 -2.6950049499133316e-05 5.1654041312741846e-05  -1.0428132246122424e-04 4.0794077133753597e-05 -3.8729503786707170e-05  -3.4429008610421551e-05 -1.1978586756070160e-05 -6.0654709593136575e-05  -1.0549305819072885e-04 -3.2631969108327386e-05 -4.9300807781685026e-05  -1.2416705189402343e-04 -3.1938832093270702e-05 4.3237494583395546e-05  -1.2188106180181670e-04 -4.2308820052273526e-05 5.1197307685583559e-05  -1.3365261949776876e-04 9.6118114773534525e-06 -2.8935005546848279e-05  -5.7401306355379414e-05 2.5957985102967534e-05 6.2562596545663021e-05  -1.2077751090340617e-04 1.9155272359989043e-05 -1.1335213698954105e-05  4.2058683327481794e-05 5.6601377560947610e-05 -4.0571446289340182e-05  -1.2642316145380811e-04 -2.3960560328316722e-05 2.4714535533957746e-05  -1.0891566041988917e-04 -1.5570280959722618e-05 4.9708579093328919e-05  -8.5835486169802598e-05 4.2290327549487862e-05 -4.8428431930209757e-05  -1.0141701576909590e-04 -4.2932816838009966e-05 1.9831612937135773e-05  -9.7097817989002510e-05 -4.9474599665702329e-05 3.3760832723670199e-05  -7.6406686739929287e-05 4.2075640928682685e-05 -2.7251802011434502e-05  -4.7848237557356233e-05 -4.3599203754937388e-05 -3.9657381005609349e-05  -9.6097459077126857e-05 2.0956705772242444e-05 -4.8093411977933988e-05  -1.2632420985230738e-04 6.1018199104019063e-06 -4.6968955571020222e-05  -6.3186303432341117e-05 -5.7262912725614220e-05 4.1168266169692193e-05  -6.2540968929140217e-05 -5.6589217432246622e-05 -1.5538259207997591e-05  -5.9765635420740277e-05 -4.7756577837353807e-05 3.7094589669197538e-05  8.3870843080420968e-05 3.0510806549787957e-05 2.9659066705276789e-05  -1.1067787533260841e-04 -3.2292642407329218e-05 -4.3070512902582371e-05  -1.3041625772785328e-04 -1.6658913743305611e-05 -5.1277822627064257e-05  3.4530223829758191e-05 5.4972432548061491e-05 -2.4394013761183640e-05  -9.0147088934822695e-06 5.6105815070606690e-05 -3.4053303945025094e-05  -2.1518242447127309e-06 5.1375617930800091e-05 -2.5120414088542372e-05  -5.6436173738329353e-05 3.0494675011439955e-05 -2.8285748108777412e-05  -8.8071164786482627e-05 -2.5122779254907280e-05 -4.6379387454843678e-05  5.0839880968859161e-05 3.0185504518037404e-05 5.3693685997667019e-05  -8.9897490872190290e-05 -4.4315891542721984e-05 1.6067672773612513e-05  -1.0129951585471798e-05 1.3195528126399145e-05 7.3983754158878968e-05  -3.2295876589662499e-05 -1.0934385633642956e-05 7.6511287994765703e-05  -1.4603508249562063e-05 4.5528882702734191e-05 -1.6874224326965835e-05  -4.9622256660273980e-05 9.6623352650701074e-06 -6.4197251160005901e-05  -1.6709182610528836e-05 -5.5340881636532357e-05 2.5332020658665676e-05  -9.3457008172316092e-05 1.0372642671649081e-06 -6.1880387905257988e-05  -1.2425367539526728e-04 -1.5087516653211188e-05 -5.0569247677568081e-05  -1.3993130632761926e-04 -2.9304560272902303e-06 -4.5930918024980310e-05  -1.3094667290943312e-04 -6.2928312126363295e-06 -3.0102753121068890e-05  -1.3462672892226494e-04 -1.0144845366673796e-05 1.8010476147689038e-05  -7.2177852634115692e-05 4.7657818323773594e-06 7.7288802612953607e-05  -1.0110410981811772e-04 1.6091023788309432e-05 4.2228303068267547e-05  -1.9632968029266431e-05 -4.8901202301416706e-05 1.4981738137869078e-05  -1.2295807300900485e-06 3.0815103793985887e-05 6.3501217603761183e-05  6.7362906637388479e-05 4.4775513452909216e-05 -1.5345807165970042e-05  1.3477354327696419e-04 4.1233065065145129e-06 -5.6896114804158624e-05  1.0089907677951219e-05 -3.7382044263819751e-05 3.8257061900637905e-05  2.0022710608751904e-05 -4.1351969256274658e-05 -1.1907789267624195e-05  -5.4072183943823308e-05 5.2653198786165025e-05 -3.2495966953004842e-05  1.3184443913712957e-04 4.9407826372086689e-06 3.5310918242325769e-05  1.0064206090808358e-04 4.1402386484305010e-05 -2.2557009242636500e-05  1.1360486682517112e-04 2.6003711013245501e-05 1.9881105240303788e-05  -1.1160157882279810e-04 -3.3516065594645772e-05 3.0391044975579987e-05  -4.7909005635810921e-05 3.4301357313939981e-05 1.7977564081577649e-05  -8.1701082684844996e-05 3.0040077042422843e-05 1.9818404826702016e-06  -1.3311627671593478e-05 -5.2564688214975399e-05 2.6439837147639630e-05  -4.9373658845205880e-05 -2.9257759066897091e-05 5.0873329694656930e-05  -9.5347295512290264e-05 -3.1745970944791590e-05 3.7435097788873593e-05  4.4073703894642304e-05 4.3382073365326989e-05 3.8677667308600199e-05  -2.3160510487061693e-06 -4.1744611808153644e-05 -4.5376725028215274e-05  9.1881432868854459e-05 -1.9235386829156968e-05 -6.5884083057548233e-05  1.2671001226639521e-04 2.0057032506873324e-05 -2.6429351071422747e-05  8.4060481104320599e-05 8.5285418466475780e-06 -7.6406825291049706e-05  -1.2408935676820409e-04 -2.2477156172241689e-05 -2.3035501869666422e-05  -4.1864134838722122e-05 -2.2214516128581244e-05 -8.1906832590031571e-05  9.5145244700251623e-05 2.2460691944785373e-05 4.2814029452796851e-05  -1.3714906158639913e-04 1.7078240305437995e-05 -4.7952909423382782e-05  3.7132370854456380e-05 -4.9164460597656734e-05 -1.5840038835164553e-05  5.0560274852795407e-05 4.7380022047511519e-05 -2.1784047168835878e-05  2.8246083801226866e-05 4.2124017977588858e-05 1.9039997994638104e-06  -1.0121155367939342e-04 2.1774055512691007e-05 5.9033779443910425e-05  1.1900620680649828e-04 -2.0205163206711306e-05 2.1877101269034619e-05  -3.6114920268297265e-06 3.7392105232364832e-05 -4.3348167913278604e-05  1.2188545617459914e-04 -1.2573290041072302e-05 -5.2454071446718025e-05  -1.2574673538453144e-04 -1.7528336951630354e-07 1.2844714049467272e-05  -8.5904254028904678e-05 -3.5696584223815489e-05 -3.0975495546730455e-05  -5.6350955838515841e-05 -4.5887669112334343e-05 -9.9394719063517734e-06  1.2962315352720111e-04 2.1163452664301151e-05 1.0162246029116414e-05  -4.2804990531379167e-05 4.3968445405851195e-05 -1.6724394855591919e-05  6.1751685525680180e-05 1.1010662218741780e-05 7.0252951035284573e-05  -6.9148236330874286e-05 -1.8335430989335827e-05 5.7862959721366854e-05  -5.5486272984256243e-05 4.0926211754787656e-05 -1.5801812885306043e-06  1.2635475682011289e-04 -4.9126130243858396e-06 -5.2442099973006080e-05  -1.7524930747290458e-05 -4.1632368858356887e-05 -2.1135025944173506e-05  -1.1452845379161896e-04 -4.1885852866775681e-06 6.1350017540418838e-05  -8.4851863760535703e-05 -9.7696502184999132e-06 6.7589154671147559e-05  -4.5067452845655635e-05 5.0552947242815225e-05 -3.3138061432501779e-05  -1.0521074320364160e-04 -2.5355908300266350e-05 -1.0425158262424841e-05  -3.4837896060265652e-07 7.0359904394832226e-07 -1.4518111135497426e-06  -6.4699734871056963e-05 -2.1345851611761690e-05 -1.4778717184277287e-05  9.0013471354564165e-05 1.2499862312917654e-05 -1.4144646633079909e-06  -3.6827812386729371e-05 2.7220640240358824e-05 -1.3794129009839911e-05  7.0108461457248661e-05 -8.1711708842096962e-06 -3.3466954265240606e-05  -4.9580325756687158e-05 -1.2706207013200295e-05 4.2517714116517960e-05  -9.1398998649728242e-05 6.3685682393421367e-07 1.8239406418807277e-07  2.3905704319335732e-05 2.1003020534510519e-05 4.2084278956492101e-05  6.7205670899281081e-05 -1.8785570062305497e-05 1.6636839348491106e-05  -5.7410262060772409e-05 6.8807466309126255e-06 -3.5916102669922300e-05  5.1998668853500213e-05 3.3386205563303354e-05 -3.1567065296705757e-05  -2.1552964619078407e-05 -3.1677443394149557e-05 9.6319431850537742e-06  1.2369775399411533e-05 -3.0851416032001072e-05 -1.8801409399427847e-05  4.6348286425309005e-05 -3.9817383161370720e-06 5.1866854468672150e-05  -2.0982970168783485e-05 -1.8210628738950155e-05 -4.8437509906357864e-05  3.7180981948424414e-05 1.3292496677858715e-05 -4.8194328709893485e-05  -6.3735590559069622e-05 1.8671429676017590e-05 3.3646380907999969e-05  -9.1469132009047913e-05 -1.9695537614372861e-05 2.4460778030962969e-05  9.6962461335696991e-05 1.6115528953149694e-05 -3.6556364325944149e-05  -1.4502693549888346e-05 3.1210229505339071e-05 -3.5198591372237418e-05  2.3141337863571533e-05 3.1931637690289581e-05 -3.8571050286171269e-06  8.7172025560307504e-05 1.3191574420677104e-05 4.8989697591641029e-05  8.1245383686408883e-05 2.4869217693666542e-05 1.8551848299133286e-05  -9.1094985270632881e-05 2.1135377795919064e-05 -3.5352259135282537e-05  9.8051678110365128e-05 -2.1757364384058016e-06 -2.7657320369198547e-06  -2.1773831244979875e-05 1.1611408946901863e-05 5.6523550090536274e-05  -1.0326034964073642e-04 -3.4074466059041858e-06 -4.1733805498548926e-05  1.0535516336895512e-04 -7.6165711426763471e-06 4.2396220805428390e-05  7.1727710257387016e-05 -1.8016994297130587e-05 -7.7364545948472445e-06  -9.8132138312673978e-05 -7.0302646919156623e-06 5.6240808409235926e-05  2.7375947543396510e-05 -2.6512751795506199e-05 3.5528090002585201e-05  -4.0512410631007741e-05 -3.4781009149507958e-05 5.1843438246033587e-06  -4.1539438885501390e-05 -2.8385594418643884e-05 -4.9614080538261176e-05  3.9442612902949685e-05 -2.1882017552754065e-05 -5.4592723903062130e-05  -8.2037970540651848e-05 1.6438009321148370e-05 9.6554825864776218e-06  3.3800221782202360e-05 -3.7596104729922458e-05 2.1076593882069667e-05  -2.0940333441612405e-05 2.7244743645238299e-05 3.4417429305784823e-05  -6.7165428732365146e-05 -3.4739887001214937e-05 4.5404703973296453e-05  9.6575829880803199e-05 2.5735264295380533e-05 -3.4587802263886643e-05  1.6747679454254992e-05 2.5342097099721701e-05 -1.1928154478928991e-05  4.7678663088174626e-05 4.6571589460403374e-06 2.5889728028202433e-05  </DataArray> 
</PointData> 
</Piece>
</UnstructuredGrid>
</VTKFile>