<?xml version="1.0"?>
<VTKFile type="UnstructuredGrid"  version="0.1"  >
<UnstructuredGrid>
<Piece  NumberOfPoints="201" NumberOfCells="657">
<Points>
<DataArray  type="Float64"  NumberOfComponents="3"  format="ascii">-0.05551314336963251 -0.02288187232823366 280.0848981625614  -0.02742353086317797 -0.003300138546726273 -280.1362124034588  549.5961939839779 0.01300573359971756 -267.144006356243  1043.70916696635 0.00131523647428858 -228.7101829563513  1433.568001760137 -0.003063661133582818 -167.6906171417661  1682.571257676031 -0.007547110653561993 -88.66689178182963  1768.146852867904 -0.03225510175581503 0.01282339907895491  1682.584266758482 -0.04195202254432999 88.65467626326756  1433.565677369285 -0.01718806993608514 167.6544932086643  1043.69133964188 -0.006585640373321156 228.7237957983313  549.6017355468704 0.03082366261973824 267.0809013051611  695.5987732376394 -515.6336229117499 -245.1993223926683  691.3086839208482 400.6040884718778 250.9585881064756  1683.252012174911 -457.0876103000238 -42.62093384004508  1215.202882741786 -499.9256955725488 189.6671830102566  1532.470468276539 462.7099050106116 120.4639845446099  1526.181073363215 462.6551576697015 -122.5267299695253  776.602462714607 461.4791935567533 -242.096580109369  267.8947826807 -461.9476806943683 267.1156436163107  1207.445031238321 -460.7240990962494 -193.5537576578438  840.6193386615199 -904.1354325401579 -199.8267953740095  1247.009765642606 -884.8323510568281 -138.5622151148852  854.8754161115379 -1264.690560178297 -133.1577054133591  1203.30610313458 -1185.741272181403 -65.84185738658404  754.9578491212308 -1504.159934972389 -55.92735124684755  1074.742306815846 -1349.581233875019 14.16334907774851  564.4868732825996 -1606.79458569654 25.51747189902716  819.3783242932102 -1396.72332050125 96.67516624504151  295.1861900912823 -1565.327112540156 102.7133566012456  525.1681323848537 -1278.486960800285 168.8349487207718  -20.41394072691373 -1373.326984492175 169.1359893979688  1256.45151854397 -1097.048338087815 81.62164378716972  1207.505652230162 460.6939179867284 193.5521746727099  1221.801611164401 890.7337991374669 143.2835430845259  1477.729713841149 852.5663153453519 65.14921979689606  196.7821932794551 -1022.171749049749 224.4594342601187  720.4684292432378 -895.9519551368219 212.08134818812  840.7035456940644 852.7003523567622 205.857794587513  808.6709997741713 1245.449076401894 145.1475880284154  1686.504047679359 -445.9620133437079 42.61858627846282  1486.805763670619 -921.3760814538289 4.940944103324991  1535.905881644879 -463.1169608755759 -119.2572709785007  267.8845324385733 461.963151581035 -267.0540815610272  1195.558630642295 449.2206551184151 -196.1575879386535  1212.47426500338 885.9859819127095 -146.1146101465131  366.6418760744497 -1518.928584814565 -115.6036203494594  -256.543894499026 -1583.886868933871 97.27869268559145  359.0409035915468 -928.2953869112546 -230.3066057920378  1467.680617628758 862.8148369605834 -67.33150897844534  1097.650239665298 1246.490419007828 -80.9964431476466  780.4828754527953 1214.676243479409 -156.0128091338069  615.3736021543956 1510.972569968156 -87.24808436280242  272.1972340346381 1420.365773571207 -151.8575430020269  79.51814717306048 1635.658757544489 -79.19409016373413  -278.9957202543829 1461.105909765759 -140.2789473612444  -459.7806685470486 1606.102672142047 -59.78783791057993  -810.7983845770488 1372.511007505641 -107.8532593103063  -88.47176622174405 1700.514055844018 5.311849547329748  -565.7958644613861 -1319.831523939442 156.1435724152214  -780.366051481494 -1457.675437476546 77.72944381523686  -951.2096919106076 1425.260245455031 -29.24706913322293  -1256.859946665239 1115.310200417772 -74.10569794975636  -1338.221357059544 1112.376183400013 6.638213451607503  -1570.142682925396 734.0001890343349 -46.37126316727231  -1591.594686409803 696.7032043008771 43.22736306924734  -1396.399845711144 696.4480484881473 -131.4591427754842  -1287.742715733488 1029.953091833545 92.95076264107846  -1661.572127378953 304.4797433953068 -84.10763433378405  -1471.846317880127 573.2965905627223 126.6098441753849  -1416.71176917977 195.7870197594929 -168.1734346884012  -1589.054208532281 -221.2240744223718 -120.5243031384311  -1096.170367350068 865.0041448695645 171.1262137427117  -245.5332217354905 -708.9667740243624 253.1620785627462  -1066.630517681705 -1128.135165658313 127.6977645234359  -1273.938736211522 -300.1011092889451 -191.3812019909938  -1374.312653958157 -703.4843536753348 -136.3820109786002  -1699.46697486043 193.2631250177646 72.61814646749887  -592.7637852634489 1138.644598570827 -189.3782211826241  -1213.35680783601 369.6656803591721 197.9372486648292  381.4884805094371 1150.923182419974 200.6937096304673  -1637.043293341987 -575.645772822282 -48.73842046784397  -1033.511021509168 120.0227657501867 -229.0806857657263  -805.1600720783523 659.3582553537229 227.2248411517633  -992.0398948707402 -757.9375001534524 -198.9054691175708  -1037.018257776401 -1126.711111574344 -134.232551826364  -873.8648709833125 1268.694720515453 128.8129785520531  -445.6469451428522 -1644.434014565528 18.50145265445284  -848.6648877117559 111.0796440381817 246.9475535281397  -1251.67299360597 -160.1967848445341 199.4961251333961  -599.4348457999881 -1131.409918735638 -189.9815235085453  -600.3666495873263 -1440.079921378177 -118.5138750245595  -517.5643217758262 -717.7433917644405 -242.5162573642906  896.5344015030327 1466.97877873084 -8.108171037832095  -1205.899464171165 -1208.900919046053 50.91094211220569  -1452.486882828845 -816.7337866893562 89.01222951455235  317.0384236955541 1479.359743714796 132.6258066444973  -114.6600373635113 1335.536565776197 176.2753852616545  -39.78680624652552 1007.918642356889 228.294900794685  -481.6761597472737 426.4547559738642 261.4618354983995  -801.3150340639153 -924.2340059264563 201.3934992438529  418.2667924881184 1125.313739116955 -202.7465617822673  -991.3334005056915 -1360.988187457476 -62.66362600089884  -131.5386430148438 864.4434141169887 -242.4449438613112  -291.8982651960004 371.0545058192953 -270.1387090650722  -196.9351349775291 1591.730640758742 97.2412343785108  -375.8240589496372 -262.7488517886288 270.8389947397722  -128.0335943918082 -1398.120304997567 -162.1481141696783  -810.9097051940442 -421.5688191726136 241.2816973805412  -1247.082763925823 -677.2304252535932 167.9901709179051  -1550.903023560303 -325.2005951453989 126.7833734338192  -1695.023314881548 -421.7739575727181 40.35231534519247  -1760.475797845473 -54.8245031091562 -24.99628434412784  -682.0564539321946 734.166548256604 -231.0438380683966  -1032.847695686392 810.9419432455828 -187.6439266155166  -150.5491268312483 -1603.824080361606 -93.76935813158359  -60.34185050034367 1261.44839272493 -191.3244244750252  705.3340959379333 1497.599831943537 74.89486937780747  1525.755131111053 -442.6477063241465 124.6940347552557  88.79521168859046 -484.8196034718644 -268.8179517332867  279.5031994127485 -1661.240417050927 -44.23025394112457  -540.1205833003384 1090.958588649168 200.5922680015799  1690.438758559119 428.5403525761706 -43.53062268444477  1130.102631289897 1235.080741242845 73.84599336330008  1332.655890543718 1118.985203693243 -3.284267365904462  -1350.45546470284 -1012.511792290278 -72.55369085783052  -585.8709486279564 1601.402057428568 22.35147590158296  -983.0325790909042 1381.253200980704 52.52129587911633  -96.27622969359891 -1044.950342956352 -223.3231001456054  -414.514472854723 -191.0447610681275 -271.1196515799303  -872.6716135406226 -306.2228130680539 -240.559329499624  408.4249597400286 1654.660112867457 -14.69400563639747  47.78903138123779 -1691.947397381452 31.91568846275275  978.1143169024692 -1077.757964469718 155.2830321722313  1693.372319238668 434.0311428328835 38.63284430781885  777.0033034848233 -458.1346602221989 242.2649494887311  -1495.512382095166 -907.6650512734162 7.100276667377576  -317.5857255220086 -1127.033986014621 206.9933539751237  864.3661971542539 826.6958017171901 -206.2248463331475  -1517.266245061054 135.995297968011 145.6373729796327  397.8846981265244 -1270.979944560948 -178.9505238920467  435.0760480539221 821.1586779567133 237.7597123400843  251.8825805006942 1647.568338486377 60.29427712808706  -1101.241521182497 1068.931570825496 -134.2207605080973  1479.392745404451 -821.1256923833629 -75.00529775809214  -27.24551060153339 445.3134994613815 270.8082768261667  1341.077120422566 -799.8702152896689 129.9051250855165  -1716.673652979875 405.9584984274751 -6.549917584789283  -913.9049251790465 -1457.894443956853 2.740457886570111  -558.2183035686771 -1591.370501113193 -47.60106784067222  1586.301535324491 752.2826251390625 -2.014817414992462  -396.4684352157436 842.43098714477 237.4709593583705  493.4126259359396 765.0386752376043 -239.9525199785429  -599.5022037013588 125.7908921772669 -263.7738175422259  -646.9057633583604 1490.818865190706 91.06731809234759  1504.632690558554 -763.770416439799 78.92185323099652  -120.5526172367881 -1690.571931068146 -28.83683243964072  -1137.734147940623 444.0860023241378 -204.8662620933333  -778.7238676428464 377.8939693319022 -245.7246025674993  -495.3202230645902 1372.111815424703 149.6426594884498  -1243.324030862831 -1207.244025639424 -16.06128636108532  0.002233953373110325 0.0105358439889347 -0.005384390268364785  -566.7676192749565 -669.5498583864711 7.787122142368897  857.0137553010381 261.1181042107515 -1.290593209791285  -341.5535976203424 703.9118678866458 62.03130282317483  638.9765819936888 -498.9941970068159 56.43478773396226  -416.7850296128896 73.1096041812262 -124.8696809912992  -881.4738065659043 132.8738783835913 0.09931189160147785  168.4646337676767 796.1478953321755 -53.89212560484826  595.7211275531713 -392.4518952542371 -84.25545457768163  -463.6489569242829 -74.606720677203 121.1895157731797  444.2931050026413 592.4870818006601 97.99993398525392  -164.0533946604271 -676.2396785974421 -106.3982428390254  146.5825769193387 -975.7510522829675 0.5159394372098555  353.
[...]
<PointData  Vectors="Coriolis"> 
<DataArray  type="Float64"  Name="Coriolis"  NumberOfComponents="3" format="ascii">-2.1961867140115813e-13 5.6170679776922193e-13 0.0000000000000000e+00  -3.3454164699934982e-14 2.7071214173060619e-13 0.0000000000000000e+00  1.1292549068497390e-13 -8.9106536597857318e-11 0.0000000000000000e+00  2.3657449061084941e-16 -1.5208595590685957e-10 0.0000000000000000e+00  -3.6499819556433380e-14 -1.7892234922094746e-10 0.0000000000000000e+00  -8.1733033129818471e-14 -1.8313358835730821e-10 0.0000000000000000e+00  -3.2710062256333786e-13 -1.8235326675690452e-10 0.0000000000000000e+00  -4.2371407039730585e-13 -1.8326118744273034e-10 0.0000000000000000e+00  -1.7817673569329662e-13 -1.7890045565773409e-10 0.0000000000000000e+00  -8.0375093140800552e-14 -1.5191097708314244e-10 0.0000000000000000e+00  3.0598113240312847e-13 -8.9166608566914612e-11 0.0000000000000000e+00  -6.4637120338233261e-11 -1.0575866252117482e-10 0.0000000000000000e+00  5.0993999002812238e-11 -1.0753170170129548e-10 0.0000000000000000e+00  -3.8073792530426384e-11 -1.7604072185319357e-10 0.0000000000000000e+00  -5.3063180640193575e-11 -1.5990354279543461e-10 0.0000000000000000e+00  4.2507998295172963e-11 -1.7485644749690717e-10 0.0000000000000000e+00  4.2022232574416483e-11 -1.7496100323441601e-10 0.0000000000000000e+00  5.7318955224216837e-11 -1.1688994849602898e-10 0.0000000000000000e+00  -6.2158424357143957e-11 -4.3341289201844629e-11 0.0000000000000000e+00  -4.9626365580676191e-11 -1.6007392725259193e-10 0.0000000000000000e+00  -9.9148059406656528e-11 -1.1286657204972674e-10 0.0000000000000000e+00  -8.3425086888651968e-11 -1.4741608218228917e-10 0.0000000000000000e+00  -1.1759494706228230e-10 -9.9223979825342421e-11 0.0000000000000000e+00  -9.8742333645582101e-11 -1.2757125488838251e-10 0.0000000000000000e+00  -1.2463919139353087e-10 -7.9181311317417318e-11 0.0000000000000000e+00  -1.0873488098316812e-10 -1.1047036614529301e-10 0.0000000000000000e+00  -1.3077919956068600e-10 -5.7624262417843651e-11 0.0000000000000000e+00  -1.2145662320107407e-10 -8.9615385316103622e-11 0.0000000000000000e+00  -1.3806158630380778e-10 -3.2502459158125618e-11 0.0000000000000000e+00  -1.2933899158627052e-10 -6.5474884974314288e-11 0.0000000000000000e+00  -1.3911571169054071e-10 2.6239658099543959e-12 0.0000000000000000e+00  -9.3548879187492708e-11 -1.3614213457287478e-10 0.0000000000000000e+00  4.9314400092359629e-11 -1.6068863888408122e-10 0.0000000000000000e+00  8.4611538317783406e-11 -1.4564683659086423e-10 0.0000000000000000e+00  7.1314333996205624e-11 -1.5710439305133977e-10 0.0000000000000000e+00  -1.2114463785540811e-10 -2.7892629900502034e-11 0.0000000000000000e+00  -1.0212313232583758e-10 -1.0073215835526826e-10 0.0000000000000000e+00  9.4799992466569241e-11 -1.1462505096286710e-10 0.0000000000000000e+00  1.1879859912991775e-10 -9.5997036207124642e-11 0.0000000000000000e+00  -3.7275667510243717e-11 -1.7666518815021229e-10 0.0000000000000000e+00  -7.4964054165176898e-11 -1.5419027653883855e-10 0.0000000000000000e+00  -4.2494247406014679e-11 -1.7566184702482767e-10 0.0000000000000000e+00  6.2313200394980411e-11 -4.3214138626170699e-11 0.0000000000000000e+00  4.8919624155981196e-11 -1.5983190173478426e-10 0.0000000000000000e+00  8.4619046410550798e-11 -1.4477871008656684e-10 0.0000000000000000e+00  -1.3703090032470579e-10 -4.1112607193437634e-11 0.0000000000000000e+00  -1.3935253048566099e-10 2.9122844019228704e-11 0.0000000000000000e+00  -1.1136664081631206e-10 -5.2478165865892177e-11 0.0000000000000000e+00  7.2992115666559855e-11 -1.5650978197854043e-10 0.0000000000000000e+00  1.0569912305270168e-10 -1.1819962537897143e-10 0.0000000000000000e+00  1.1836650128417905e-10 -9.5016975622580296e-11 0.0000000000000000e+00  1.2977948009277720e-10 -6.6697393607782769e-11 0.0000000000000000e+00  1.3742055595782215e-10 -3.2817755391687978e-11 0.0000000000000000e+00  1.3901130089828841e-10 -7.9416536809415474e-12 0.0000000000000000e+00  1.3844244083779492e-10 3.3259596749865226e-11 0.0000000000000000e+00  1.3357998032928282e-10 4.8952026840307358e-11 0.0000000000000000e+00  1.2242273582079099e-10 9.1220176507517900e-11 0.0000000000000000e+00  1.3727777085344381e-10 9.8136836572036299e-12 0.0000000000000000e+00  -1.2994057580381113e-10 6.9195900558240455e-11 0.0000000000000000e+00  -1.2473362333620580e-10 8.3820754186993777e-11 0.0000000000000000e+00  1.1669428686045702e-10 9.9271340184573018e-11 0.0000000000000000e+00  9.5659354773514050e-11 1.3466820112289239e-10 0.0000000000000000e+00  9.0883206327357622e-11 1.3756686200300521e-10 0.0000000000000000e+00  6.0753280338096508e-11 1.6494944071056133e-10 0.0000000000000000e+00  5.7599743652681757e-11 1.6650762393771769e-10 0.0000000000000000e+00  6.5055079025349469e-11 1.6181735969646428e-10 0.0000000000000000e+00  9.0192046584127593e-11 1.4093878622919504e-10 0.0000000000000000e+00  2.7227624214876528e-11 1.7916892463947789e-10 0.0000000000000000e+00  5.3019191487167000e-11 1.6918799829527906e-10 0.0000000000000000e+00  2.0724913941844537e-11 1.7632160758483608e-10 0.0000000000000000e+00  -2.0627487356752808e-11 1.7953581241606962e-10 0.0000000000000000e+00  8.8144430111140611e-11 1.3831288651652932e-10 0.0000000000000000e+00  -9.1374902817529899e-11 3.8484334505360670e-11 0.0000000000000000e+00  -1.0512426626247761e-10 1.2341254352165005e-10 0.0000000000000000e+00  -3.2181639945245143e-11 1.6739035720868016e-10 0.0000000000000000e+00  -6.6666622602484123e-11 1.6033733412429220e-10 0.0000000000000000e+00  1.7575753892396666e-11 1.8081801040623233e-10 0.0000000000000000e+00  1.2117080785782532e-10 7.7956578751295215e-11 0.0000000000000000e+00  4.0672053185359055e-11 1.6236654257659383e-10 0.0000000000000000e+00  1.2617458608850350e-10 -5.1647564653251665e-11 0.0000000000000000e+00  -4.8187672055173003e-11 1.7002603890808700e-10 0.0000000000000000e+00  1.4478040710633431e-11 1.4974976974855135e-10 0.0000000000000000e+00  7.9058754217705757e-11 1.1629603695759560e-10 0.0000000000000000e+00  -8.3345585197583650e-11 1.3266145786971201e-10 0.0000000000000000e+00  -1.0580610174893611e-10 1.2122746662263343e-10 0.0000000000000000e+00  1.1839116711655370e-10 1.0114576831310205e-10 0.0000000000000000e+00  -1.3395407908463239e-10 4.6146408613373040e-11 0.0000000000000000e+00  1.3941478307376900e-11 1.2978317733138374e-10 0.0000000000000000e+00  -1.7250285897462147e-11 1.6800012028071450e-10 0.0000000000000000e+00  -1.2093847708333397e-10 7.8745128852844283e-11 0.0000000000000000e+00  -1.3103633183216324e-10 6.8255164953002014e-11 0.0000000000000000e+00  -8.9791504443621858e-11 7.8432456042399756e-11 0.0000000000000000e+00  1.1796067745203505e-10 -9.2866894358983541e-11 0.0000000000000000e+00  -1.0124943440331457e-10 1.2705769644554022e-10 0.0000000000000000e+00  -7.1320620229318662e-11 1.5782289468999241e-10 0.0000000000000000e+00  1.3768527586100768e-10 -3.6610576174240962e-11 0.0000000000000000e+00  1.3738639675047731e-10 1.5413348230446078e-11 0.0000000000000000e+00  1.1957204128110882e-10 6.0051787547653101e-12 0.0000000000000000e+00  5.6760086776627758e-11 7.6925733120263426e-11 0.0000000000000000e+00  -1.0255049417321393e-10 1.0798527231607498e-10 0.0000000000000000e+00  1.2464501302092577e-10 -5.6644669812261963e-11 0.0000000000000000e+00  -1.1533884673067607e-10 1.0504648048713232e-10 0.0000000000000000e+00  1.0750445106730255e-10 1.9663050174892034e-11 0.0000000000000000e+00  5.0333141342058796e-11 4.7895922958697408e-11 0.0000000000000000e+00  1.3925218137301826e-10 2.2237326461295062e-11 0.0000000000000000e+00  -3.6816252117361810e-11 6.1540791749256321e-11 0.0000000000000000e+00  -1.3972722108693274e-10 1.5841563549568415e-11 0.0000000000000000e+00  -5.2203578620945695e-11 1.2124856427812942e-10 0.0000000000000000e+00  -6.9283172367959768e-11 1.5572672671695205e-10 0.0000000000000000e+00  -3.0161952380962101e-11 1.7715908513162444e-10 0.0000000000000000e+00  -3.5163156659927314e-11 1.7478093642735207e-10 0.0000000000000000e+00  -4.2078430198895510e-12 1.8087748980912020e-10 0.0000000000000000e+00  8.8314378147235691e-11 1.0016595728860514e-10 0.0000000000000000e+00  8.6131345737767466e-11 1.3531195558168211e-10 0.0000000000000000e+00  -1.4023792159749572e-10 1.7381191791233645e-11 0.0000000000000000e+00  1.3451913876011487e-10 8.1744670809471866e-12 0.0000000000000000e+00  1.2610900324385772e-10 -7.5359750883012858e-11 0.0000000000000000e+00  -4.0532421838668623e-11 -1.7576147942783426e-10 0.0000000000000000e+00  -6.5474721236962998e-11 -1.3674314058867823e-11 0.0000000000000000e+00  -1.3688102900573062e-10 -2.8965706476281162e-11 0.0000000000000000e+00  1.2046585364566128e-10 7.2805633983387569e-11 0.0000000000000000e+00  3.5521985645905583e-11 -1.7670106068187306e-10 0.0000000000000000e+00  1.0386373558475141e-10 -1.2073034725522431e-10 0.0000000000000000e+00  9.0119028257712452e-11 -1.3728282707897528e-10 0.0000000000000000e+00  -8.6517864453965183e-11 1.4429300521800195e-10 0.0000000000000000e+00  1.3055474926063368e-10 6.0895209381312825e-11 0.0000000000000000e+00  1.1475815737035270e-10 1.0329761054128159e-10 0.0000000000000000e+00  -1.2330595335965880e-10 1.3763192639667150e-11 0.0000000000000000e+00  -2.5786481858403378e-11 6.7938210563949745e-11 0.0000000000000000e+00  -3.7366872135877353e-11 1.3088870093959257e-10 0.0000000000000000e+00  1.3433110147171096e-10 -4.1558187624499045e-11 0.0000000000000000e+00  -1.3837823781239179e-10 -4.1432613344969788e-12 0.0000000000000000e+00  -1.0547327618190161e-10 -1.1845338861273265e-10 0.0000000000000000e+00  3.6059434987270905e-11 -1.7644383794002968e-10 0.0000000000000000e+00  -5.6684879735162602e-11 -1.1658676407589408e-10 0.0000000000000000e+00  -7.4416110859440414e-11 1.5443991302116451e-10 0.0000000000000000e+00  -1.2650534484588866e-10 4.3788274245541822e-11 0.0000000000000000e+00  9.2131146914764407e-11 -1.1806973348200652e-10 0.0000000000000000e+00  1.3648144148521939e-11 1.7982748561770377e-10 0.0000000000000000e+00  -1.3213662951951438e-10 -5.0590217532578912e-11 0.0000000000000000e+00  1.0096178394725178e-10 -6.4808792448779701e-11 0.0000000000000000e+00  1.3701980870871364e-10 -2.5905208081820923e-11 0.0000000000000000e+00  1.0059821700974355e-10 1.2917849474418548e-10 0.0000000000000000e+00  -6.9632526209508726e-11 -1.5948783209384470e-10 0.0000000000000000e+00  6.0360100851269280e-11 4.6982320576702376e-12 0.0000000000000000e+00  -7.4882570898437390e-11 -1.5573287091867031e-10 0.0000000000000000e+00  3.4045908277697991e-11 1.7645502386275034e-10 0.0000000000000000e+00  -1.1955488629216483e-10 9.3959426611974231e-11 0.0000000000000000e+00  -1.3166355143723785e-10 5.8411003094663001e-11 0.0000000000000000e+00  6.1063202692137155e-11 -1.6425714885429129e-10 0.0000000000000000e+00  1.0319828294539193e-10 5.9170931159072120e-11 0.0000000000000000e+00  9.3811196186617584e-11 -7.4213175846182398e-11 0.0000000000000000e+00  1.7184523268058882e-11 9.6135557241022224e-11 0.0000000000000000e+00  1.2952733102987299e-10 7.1228739485270623e-11 0.0000000000000000e+00  -6.5414619940374277e-11 -1.6262878450600976e-10 0.0000000000000000e+00  -1.3859659214942040e-10 1.3587465544001054e-11 0.0000000000000000e+00  4.9938862044595749e-11 1.5531756547164414e-10 0.0000000000000000e+00  4.7459718916186257e-11 1.1804657693545567e-10 0.0000000000000000e+00  1.3235819232694346e-10 5.9968559968594262e-11 0.0000000000000000e+00  -9.9029490010694536e-11 1.2856639739719818e-10 0.0000000000000000e+00  1.0431828435425982e-13 -1.8060087411177917e-14 0.0000000000000000e+00  -8.6772085072189780e-11 8.8069946766181116e-11 0.0000000000000000e+00  3.3912708142582248e-11 -1.3307600195915274e-10 0.0000000000000000e+00  9.2712720274618020e-11 5.4468468601654318e-11 0.0000000000000000e+00  -6.5720324548646088e-11 -1.0103209701805853e-10 0.0000000000000000e+00  1.0338378469150113e-11 7.0945083473482522e-11 0.0000000000000000e+00  1.7022066683532495e-11 1.3713437435297195e-10 0.0000000000000000e+00  1.0416306766741479e-10 -2.6803498024207984e-11 0.0000000000000000e+00  -5.2570763058755169e-11 -9.6426928328340356e-11 0.0000000000000000e+00  -1.0383250082293455e-11 7.7742191979399939e-11 0.0000000000000000e+00  7.8472342938250583e-11 -7.1323800070690069e-11 0.0000000000000000e+00  -9.0562311464097649e-11 2.6239856731347925e-11 0.0000000000000000e+00  -1.2140685447154832e-10 -2.1842616964960132e-11 0.0000000000000000e+00  3.6233884897082641e-11 -5.9273507363781762e-11 0.0000000000000000e+00  -1.0018395844226821e-10 2.1868190916191899e-11 0.0000000000000000e+00  -1.2792250805337941e-11 -5.2825717896414334e-11 0.0000000000000000e+00  9.3651036935851528e-11 9.1571256631206108e-11 0.0000000000000000e+00  -4.4412776517108714e-11 1.3460495960525506e-10 0.0000000000000000e+00  5.7470020771904656e-12 -1.3897120764510536e-10 0.0000000000000000e+00  6.3826861241763236e-11 2.0433508232442751e-11 0.0000000000000000e+00  1.2542752984470543e-10 -2.6702463607936969e-11 0.0000000000000000e+00  7.6423165200723406e-11 -1.1457788814490829e-10 0.0000000000000000e+00  1.0109794467936665e-10 -1.0795105850928784e-10 0.0000000000000000e+00  4.9721526624372321e-11 1.3256359968094588e-10 0.0000000000000000e+00  -3.8822246722142057e-11 -1.5541364565817545e-10 0.0000000000000000e+00  9.0750478377317636e-11 3.4273276714161503e-11 0.0000000000000000e+00  -4.3166236898641356e-11 1.5059672237507748e-10 0.0000000000000000e+00  7.3992466627064422e-12 -1.5165344023236241e-10 0.0000000000000000e+00  -1.0012404854758437e-10 -1.0689186433351608e-10 0.0000000000000000e+00  3.9395022930647960e-11 1.4375864945537861e-10 0.0000000000000000e+00  -4.6887312797793094e-11 -3.6908614974664557e-11 0.0000000000000000e+00  -1.2602744696420811e-10 4.9722665196505412e-11 0.0000000000000000e+00  -1.2959311948021979e-10 4.7128460834998625e-11 0.0000000000000000e+00  -1.1915756777432990e-10 -5.7908517597246116e-11 0.0000000000000000e+00  9.6522044752088869e-11 1.2120967903370308e-10 0.0000000000000000e+00  -1.1800015310424237e-10 -4.9621427672957875e-11 0.0000000000000000e+00  1.3136998070280297e-10 3.4171567800953646e-11 0.0000000000000000e+00  -5.7254255205612055e-11 9.2865424507700460e-11 0.0000000000000000e+00  6.4962930118908389e-11 -1.4356953855766618e-10 0.0000000000000000e+00  7.1651775250809178e-11 -2.0933464722447933e-11 0.0000000000000000e+00  3.9055570137831400e-11 -6.3902489004148895e-11 0.0000000000000000e+00  </DataArray> 
</PointData> 
</Piece>
</UnstructuredGrid>
</VTKFile>