<?xml version="1.0"?>
<VTKFile type="UnstructuredGrid"  version="0.1"  >
<UnstructuredGrid>
<Piece  NumberOfPoints="201" NumberOfCells="657">
<Points>
<DataArray  type="Float64"  NumberOfComponents="3"  format="ascii">-28.32792411512215 -2.441330898489102 53.89335081500592  -10.79612265622499 -15.48921915725222 -52.45342993964915  5563.784079238589 -104.7540940540498 -77.42141802474228  9272.756745155346 -110.091857899463 -138.6880876745567  11022.79942791672 -110.174804435402 -234.7730518701181  11796.0963758078 -112.1706291852149 -176.8539088103797  12025.88163765498 -119.7036388553842 9.103761797937258  11799.43049867543 -119.3539032878745 185.5458662823212  11024.15691183314 -117.6739724974549 232.9416954582516  9280.924819565334 -135.2606830899365 133.7004837067094  5573.992164629009 -74.8221977770996 74.13051538566219  6378.097562222943 -4323.723724532885 -117.8224961106609  6658.604297764313 3336.970424176535 96.69595123475308  11612.03425567996 -2840.57538212705 -93.67104897993912  9705.601175755432 -3601.891829580671 201.5404332797463  11078.53540912767 2806.692156354493 237.239831080175  11092.45448994264 2798.969764106651 -227.63773640606  7199.168746952193 3700.203020898271 -131.5613797901204  2669.408262422113 -4256.490859598507 84.67601335586664  9715.782973031244 -3358.445989969999 -192.3750683153123  6801.091116474687 -6648.935097021593 -190.5791888900991  9178.29673243941 -5823.347556049909 -211.154855334808  6206.211231679245 -8239.00159120217 -232.8999117585122  8301.812567455199 -7292.590569050771 -146.7414850193371  5174.325436350113 -9218.74725876417 -125.7413589337171  7299.472330020426 -8172.283653710678 25.02648042235545  3796.68464041124 -9774.859132050846 54.83553375408892  5747.701113638778 -8769.768414727419 192.362924991855  2022.827852320327 -9908.122654352479 194.0899889047867  3986.766020214622 -8796.894049455906 227.5555057014675  -222.2495382162192 -9418.54146709542 225.4956278171217  8771.2654668218 -6822.395376319729 148.5754521870825  9828.862745582152 3145.130688376275 207.1212289841996  9138.114955287243 5672.697994818592 230.5250578136496  10278.28655441853 5027.881450231834 138.8460683276166  1653.710492844533 -8012.426257987448 143.369408717211  6035.903592028843 -6798.328770653994 171.8513560626421  7043.50452738428 6169.789113443963 188.0424527894955  6098.355479040958 8103.73635994219 218.7305543761155  11630.54903681552 -2780.443643909815 91.57877490146288  10164.56948093892 -5601.643526491672 7.203916641864523  11145.78443177766 -3012.66066021604 -201.4047217441036  2714.600252635458 4223.357564567686 -76.90868219063583  9793.986353864184 3116.856229907644 -206.5682530826609  9083.846625474096 5669.315959124713 -237.1315663725121  2566.409512098133 -9738.338377563532 -209.0861157683782  -1929.966301899122 -9933.254525768976 192.3480388264695  3155.268859464324 -7386.836691820927 -136.9044055321002  10215.30889530085 5112.889910536948 -147.1942772691072  7765.552930990769 7546.535623647675 -169.5156063383807  6008.347229570602 8022.188638429322 -224.957520292171  4426.442036225712 9328.743426754894 -163.9325998878705  2121.708004068109 9397.445624676171 -218.0025192310185  587.3893100640132 10075.32290805717 -151.2102141000504  -2063.304208016901 9587.958441371351 -214.3111330567142  -3204.894510075795 9856.579590995441 -126.3289541039778  -5812.094761107731 8745.05118315079 -205.429090610101  -604.6864580527392 10255.983494014 14.64252457776342  -4405.71786101468 -8763.339012088867 216.645619117051  -5559.850684732804 -8918.096144215046 152.2769249316913  -6542.576108932099 8711.508779179636 -64.33290531386204  -8750.796641754856 7015.412211408333 -155.5475292712215  -9116.654164301379 6842.194055356921 12.50688006500681  -10792.38321079117 4552.717857599541 -99.3295167488584  -10897.91698039465 4321.334599437439 91.6501126320525  -10171.0428759924 4624.409374240162 -218.9510543965739  -9064.321735683501 6549.074356770845 185.7006032657381  -11554.03291468539 2004.073356997239 -176.6405359357605  -10647.20182068674 3789.261182691784 214.7492996968655  -10848.17650765162 1449.08344182486 -229.4527623350999  -11419.07451075822 -1326.595712456285 -225.6968698395849  -8482.264437280668 6062.308209174919 218.2528623339041  -2484.95628245571 -6033.369518901646 93.88033043307462  -7874.510955660874 -7165.898813788831 211.2741089529625  -10270.79619595842 -2045.228606781516 -208.6915048277688  -10173.09864604011 -4488.453367250539 -221.7916864613829  -11713.9837041237 1300.505922013086 160.4643976137028  -4725.182393759395 8138.128168198957 -212.5585449213241  -9846.929235547308 2787.941005732901 195.3957400327881  3214.858815197645 8335.246073133627 195.7277642863925  -11264.16022622386 -3414.652981865483 -111.7944407045617  -9115.870663685295 993.2928992063878 -141.0656949960083  -7011.549397447903 5331.504247171555 145.6206702312354  -8161.858383793946 -5403.934379181635 -201.7877484443592  -7709.456026845319 -7180.051531902908 -221.4446334543738  -6360.544741328286 8299.481341279474 219.0585723935695  -3158.106813702102 -9911.095206315684 45.4982437445781  -7935.686991456753 994.7860394279181 100.909324196735  -10274.23883542491 -1076.258424381013 193.5780349922157  -4913.330516886341 -7948.795026242495 -209.6535903272985  -4442.41571921812 -9126.111423538496 -213.2443923193651  -4877.636344636134 -5853.274843466218 -129.1051198765347  6268.553503142131 8737.476275421497 -16.38468383238506  -8428.595839016685 -7244.459984294888 102.5563233378406  -10318.44423756681 -4978.129522618962 179.1488749575961  2405.978735188557 9556.331197309033 214.5630476533365  -886.0271321497872 9227.185829554564 209.8212621161292  -295.3040576869452 7866.978201562044 155.8683637254063  -4689.410106709862 3865.916975712355 89.37805740059983  -6663.988592064185 -6654.938851621002 196.2879916678014  3512.12224432351 8206.02301120379 -190.4952842796626  -6966.254242451744 -8232.898275891135 -134.230469174448  -1141.81526341468 7129.700482293951 -123.3964565729945  -2926.634428368521 3488.901692984653 -77.12656308194018  -1402.30456683552 9985.090680347988 176.857387221719  -3902.570091546346 -2487.79311274473 69.23793780729639  -1040.275991369963 -9499.160558041021 -216.4903251267907  -7448.276697583468 -3403.648699702623 129.0933615954283  -9694.611272071234 -4544.252682792797 215.6419109394923  -11232.31159644123 -2001.672978837645 238.0927365908634  -11577.46958468107 -2476.720664089569 97.516547800662  -11926.92516841073 -234.5931878333864 -62.27826379335238  -6018.478540613422 5912.178546106808 -147.9956199324013  -8216.57743488762 5870.347215788305 -207.5606408408434  -1161.732689903031 -10055.90616845268 -175.9541651555382  -447.6244875118274 8956.766449163582 -204.8655888781838  5027.449000026403 9144.949934267906 148.6796755645755  11122.37950536733 -2885.38229031891 202.8963451062992  799.1325912536394 -4476.132610472732 -71.1991029725621  1848.560766966011 -10158.50899877969 -97.46279325067431  -4416.578207141468 8032.549937992001 192.2154377242797  11612.96256918099 2455.807368226637 -98.59090514610241  7958.448003148167 7439.001560493817 155.7086107168265  9152.734382248986 6557.806619823678 -8.265067711782722  -9506.069713774739 -6113.76577965097 -146.2009673234272  -4031.104583820058 9736.013962658677 43.95259454549858  -6786.236347119237 8512.512599338503 113.6462921210907  -914.8828794723873 -8104.234565298591 -152.2432096323541  -4253.356854235975 -1771.160200716893 -70.62958013327174  -8047.766921004839 -2437.069322545557 -125.2425591609488  2873.898156174735 9970.863118323579 -29.23601427966834  232.3395879103809 -10288.6341293677 76.3662154980202  7310.079498705008 -7269.808577062877 219.9292211120021  11607.58962536765 2491.316918430784 99.12176572284709  7043.528274119062 -3812.193763454661 133.0796994073741  -10338.20643741533 -5360.487834755996 16.0460231700947  -2755.57524097953 -8306.17476000528 175.981461622158  7257.731304586921 5996.496963532135 -192.6000234398983  -11206.69679374161 987.1978883259045 235.7152272261764  3057.994566613259 -8921.281082248515 -217.2106985607111  4012.464297986696 6628.516497496012 128.6687367135334  1793.344339815061 10047.68812925025 123.9197238129696  -8098.946634613436 7081.910318044958 -219.3336282238197  10330.26196156224 -5091.707817245933 -141.0776111878498  -236.56864944748 4119.90402288805 66.63984243028857  9771.373370156889 -5243.956110200435 201.212321267061  -11621.40485695274 2563.644058717003 -14.94137353586241  -6336.74464213884 -8714.352824572776 -2.101470549363214  -3953.924204329246 -9634.438467019192 -104.6357730870368  10860.92773302946 4336.392694756857 -4.781913218153232  -3562.195301641554 6848.103121972449 134.3350147217627  4585.328529639546 6170.156225765842 -136.5721562157164  -5954.948644437452 1225.163615470068 -74.07557765690046  -4582.296138335233 9353.227793565928 174.7120423771314  10526.63530827951 -4764.509931203664 147.6215707391381  -926.4875781289556 -10272.33407272364 -56.17643064236032  -9435.61220951478 3429.584456660322 -172.8640432669481  -7149.506480888085 3278.774062888304 -115.6338704027166  -3712.719763969821 9137.320004932164 221.6748273546359  -8607.276711662395 -7160.397365831808 -36.59712784104669  -5.395083064505212 -10.70771809779302 1.308278115991611  -5354.949419679618 -5489.506415031198 0.7430988387091528  8030.746592469539 2096.576745053262 -5.193433453711668  -3226.067102267695 6024.59433242864 26.09051660174941  5996.505541532666 -4298.918898549207 30.25973417650644  -4330.902480045541 755.4629870510385 -27.99352876975327  -8198.946893193002 1187.028987478242 -1.175665492613807  1672.712160096367 6718.292147027262 -25.89952161577772  5774.538379414384 -3476.059122031867 -25.50264723057536  -4775.391424680423 -666.3815783452214 32.61066289076414  4379.440096206336 5076.117324143234 34.3735386171267  -1681.691095593857 -5847.221485172064 -42.54069464769017  1269.350551095924 -7806.393542883961 -0.4804121121845253  3679.014976749328 2385.495377909274 -34.85413948428859  -14
[...]
<PointData  Vectors="Self-Gravity"> 
<DataArray  type="Float64"  Name="Self-Gravity"  NumberOfComponents="3" format="ascii">1.1237075578525623e-07 9.7706203453071749e-10 -1.8743351888482725e-05  -1.7546003021333572e-08 -9.9876619684183792e-08 2.5536023466358137e-05  1.3354461840544681e-08 -8.7365959142015900e-08 8.9147075608543147e-06  8.4858368911791279e-09 -8.2776797237121559e-08 2.2935954975640853e-05  9.4796940302309397e-07 5.9049757576046056e-07 5.1899399715112191e-05  -1.2162103879510864e-05 2.6157279108926085e-07 5.3204946847819470e-05  -1.4631607462167969e-05 -1.7428717695679584e-08 -1.4882238925255912e-05  -8.7847052944170774e-07 -4.8000091287532013e-07 3.2748656007327685e-06  -1.2845695404622483e-06 -1.4169961668476670e-07 3.6108187431601660e-06  6.9080710831204246e-08 1.5677684641117610e-07 -1.6273482869008966e-05  -1.0771617266799606e-08 -5.7776071875088616e-09 -1.0240259353822440e-05  1.1826094577494721e-06 -1.0657094410154610e-06 7.1377431718969131e-05  3.0686857091076640e-07 1.5786734953993921e-07 -4.3367414220168006e-05  -1.2978649779376681e-05 3.8667601234607870e-06 2.6654808654081820e-05  -1.6957052700239735e-07 -6.5671555164367625e-08 -2.5467954893917419e-05  -2.6301334362792898e-06 -5.2672200682104594e-07 -7.1255699878043684e-05  -2.7500326174921867e-06 -7.2459984254978799e-07 4.7888331928856003e-05  -2.4301642896455821e-07 -5.4066914701713039e-08 1.1544742914560441e-05  2.3635468025923703e-07 -6.8168611997973645e-07 -1.5243743371805800e-05  -2.5121670607973371e-07 3.5118842918106371e-08 2.6558963639700762e-05  -1.4925457395299299e-07 7.1410682672410701e-08 3.2729690978949193e-05  -1.5867455421610627e-06 1.0835489909719071e-06 3.8267228166589299e-05  -2.4287856257348528e-07 2.2127657851897818e-07 5.3809053421144860e-05  -1.2738187427701747e-05 1.5246660232684477e-05 5.4824630584980326e-05  -7.8289307838776804e-06 1.9302017868334060e-05 3.7065897029429569e-05  -1.7985587120282657e-05 2.8096196232824115e-05 -1.8414148834686417e-05  -7.3781368741873936e-06 2.5189025432657932e-05 -1.5746380912041605e-05  -5.7248585274550863e-06 1.0454950525878497e-05 -6.9857492158670933e-05  -1.0081199366692833e-06 8.5674794236444872e-06 -6.1150426837284900e-05  5.1402460791995706e-07 -1.5624078308323557e-06 -5.7949107202784786e-05  -9.1161586929848893e-08 9.4402668296927939e-07 -2.5291453480892366e-05  -7.1959656485343670e-06 7.3241825593403404e-06 -5.1708115777464412e-05  -1.1529592939562996e-06 -2.7912082859697997e-06 1.3416457198876282e-05  -5.4101346702417731e-07 -5.0535585995891339e-06 8.6740624994280192e-05  -1.8646319240402902e-05 -1.3184587236341654e-05 -8.0069632035582869e-05  -2.0640144927247309e-07 5.0598980512777955e-07 -1.2636885738923982e-05  -1.5327117988161080e-07 -1.9190787717297027e-07 -2.5424793227581526e-05  -8.2147736866961613e-07 4.8477252868077050e-06 -2.0430847653928713e-06  -1.3514834457698433e-06 -9.1254137026404525e-07 -6.1295401480845112e-05  1.2570670128012538e-05 3.6084171886799244e-07 -9.1488103996618367e-05  -1.9605977630805723e-05 1.5408123768579826e-05 -3.7422775890763639e-06  -8.5145296272191683e-07 3.2714472204623829e-07 3.5052118084293478e-05  -8.2902465446623310e-08 1.2312246057917012e-07 2.0319135789458346e-06  4.5765008873593703e-07 3.1138661148691284e-07 3.5605334345858497e-05  -1.3269256023275873e-06 -9.8995935037581706e-07 4.6264066639105410e-05  -1.2162139379945676e-06 6.6867373852015704e-06 7.6492596973698135e-05  9.9336144890245580e-07 8.6490805179858297e-06 -7.0103677428738609e-05  1.1122169371491176e-09 -6.6502705412324920e-07 3.1414588288843734e-05  -8.8074555973651497e-06 -6.3639529855954451e-06 3.5180555231486783e-05  -7.8798937050579888e-06 -1.0810532314327159e-05 5.7044882008912166e-05  -3.8953518903696669e-07 -1.0640931700581640e-06 4.7803280403104208e-05  -2.9852786176727155e-06 -9.4073757230597913e-06 5.7885391914735215e-05  1.0801486234736296e-07 -1.1145926612433408e-06 4.6082304378633568e-05  -1.3455889298546770e-06 -1.5137027408368688e-05 6.5275230474118822e-05  1.2826057601971153e-07 -8.0786798952546341e-07 5.4624309490916325e-05  4.9579825882996834e-06 -2.1788550878987665e-05 5.2339090030829764e-05  2.5284601199422232e-06 -5.3464503073615126e-06 6.0613523727820447e-05  1.1872883368970184e-06 -3.1763788171895074e-05 -3.7006966532336651e-06  6.3847260797249399e-08 -4.5043386407671395e-07 -4.0469117438518994e-05  5.3297325782623009e-06 1.0681423768868664e-05 -5.7072413553501833e-05  1.0808018578406407e-05 -2.0315197082594311e-05 2.9390408341125024e-05  9.8755421713054870e-06 -1.0368697542470240e-05 5.0902023376567631e-05  2.7850144578729417e-05 -2.7455353747641006e-05 -1.8305627394546239e-05  1.4180006232523732e-05 -8.2451944983596311e-06 2.6026162126801491e-05  1.5298682512818829e-05 -8.0394914454540377e-06 -2.1245953276275348e-05  1.8589548164011556e-06 -1.0909962838676237e-06 8.2592549177233011e-05  6.6583166642368767e-06 -6.0734296324186656e-06 -7.1060063568199506e-05  -2.4192112806232002e-06 4.2695225242466543e-07 -4.1050838735039932e-05  3.8476537683039862e-06 -1.7708612029774050e-06 -7.6278006516029853e-05  -6.4872364775313548e-07 7.3585782633399168e-07 1.0356817353515047e-05  3.1708043254303356e-06 -1.3762176956207508e-06 6.4121445767305362e-06  -1.0590921937931653e-07 -2.4542914983456667e-07 -4.1757470282325256e-05  2.7281130682886837e-07 -5.1297898664811595e-07 -2.6760610450634193e-05  1.1156490938142458e-06 1.0623475697664143e-06 -3.5794876839579260e-05  1.4055822453021134e-06 4.1850008421562994e-08 -6.2969286886022206e-06  1.1110520027798247e-06 -1.6693340233129005e-07 5.3975832836869270e-05  7.6663346025318110e-06 -6.9897482592402321e-07 -2.9936205422645836e-05  -4.6481373815852415e-08 9.2104811634942523e-07 3.4995447416393139e-05  -1.7933135872763978e-06 7.9852908400131375e-07 -7.1197301695445362e-05  -1.9468725348565036e-07 -1.3776535163980419e-06 -1.1764818906981854e-05  2.1237700382293228e-05 8.0736347088840383e-06 5.3656862961350412e-05  3.3372905699694997e-08 1.3778022667774093e-07 2.4704824801914524e-05  -1.2615119844988898e-07 -2.9199191074038139e-07 -1.6844876031790766e-05  -1.9463197945953072e-07 -1.0193857494389890e-06 4.9049871632475368e-05  8.1354623988387861e-07 1.0380881752989489e-06 3.3681526035000218e-05  1.1714937058167626e-06 -1.3373512899255124e-06 -5.5045688668279249e-05  6.7563065228938465e-06 2.7753990446303830e-05 -2.2599782533851867e-05  2.8928091122357756e-08 2.3744137917432784e-07 -1.6490482973788143e-05  5.7249121590860327e-07 -2.3449714630871459e-08 -1.0884197485718774e-05  4.4899952483134376e-07 5.0058270758025746e-07 1.4169359904738698e-05  8.6932816612093998e-07 1.1637133311236896e-06 5.1221938024023605e-05  5.6017186227126309e-07 1.1758011861470222e-06 -7.0746755811890914e-05  -1.5325752771546211e-05 -2.7958315515160855e-05 9.9839908225464383e-07  8.8023283778246826e-06 1.0749783829698271e-05 -2.9845776035950134e-05  8.5307277254360992e-06 5.9957234595887299e-06 -6.9773527737528764e-05  -5.8176436987745774e-07 -1.0355736970450442e-06 -4.8442901661093175e-05  1.2136603594155454e-07 3.6025109166712426e-07 -3.3060432839546389e-05  -1.8798633402727470e-08 2.0968289905288987e-06 -7.0144170778523631e-05  4.0952648496057953e-08 7.5985080009034798e-08 1.6953290391463731e-06  4.9022135737081255e-07 3.0284178413186735e-07 -8.4007723444089981e-06  1.3549755648767145e-07 -5.2540372320510920e-08 9.6472074707432773e-06  6.1474864580659057e-06 1.0075531657190126e-05 5.0727878523801454e-05  -4.2152210125373502e-08 2.6113139882023224e-07 1.6719576719676468e-05  2.8029319324592890e-08 3.4886271360049068e-07 3.8875218155982641e-05  8.5723939055199208e-07 -7.6409916818128983e-06 -5.2841120374509620e-05  -8.5259636390759778e-08 -7.6830907416133101e-08 -2.6530607999204821e-05  -1.0144551797708637e-07 9.7903975736313753e-08 3.3445351227371286e-05  -1.4362336515277870e-06 -1.3014263499387500e-06 -9.5090726322635729e-05  6.9987696541190084e-09 -1.8843186585144079e-07 -2.9936444006783891e-05  6.9400329870075231e-07 -8.6823569507857183e-07 -3.7196899185829922e-05  2.7090950683231316e-05 6.1894383245112472e-06 -4.3397540009424240e-05  5.4013920312141995e-06 1.6626152263947065e-08 6.6881574572368727e-06  -1.1603330367319342e-06 2.6542084836073522e-06 5.3924522311392271e-05  2.0871206336951922e-06 -3.7289455929579237e-06 -5.7717532165967363e-05  6.2314906985761443e-07 1.0568358592710384e-05 6.2538441814852732e-05  -3.5366305578601018e-07 8.5405693399964155e-07 5.3537893901562904e-05  -6.0903973938100052e-06 -1.4677482128807289e-05 -5.9671612325934510e-05  -1.4351298390069081e-06 1.7693259315165142e-08 -1.9952012463906851e-05  -6.5062876089623550e-07 -9.7560428557842462e-07 -1.4351472574561715e-05  -2.7492862532058736e-06 1.9233204243667447e-05 3.3762688325777493e-05  1.4353410975222536e-07 -4.4024911459023188e-07 -1.6297347463626129e-05  -2.3494294952031660e-05 -6.5689821476429741e-06 3.2929123551723563e-05  -9.4785979278803476e-06 -1.3061862141038948e-05 -6.6801732316972931e-05  -2.5909082313731307e-05 -2.6451560657251532e-05 2.7600409253235708e-06  1.1841199177673416e-05 1.0051053743531053e-05 5.5263039303454313e-05  8.4835271238764271e-06 -2.8895422484394312e-05 -1.9813224843669475e-05  1.4189768949229944e-05 -2.5913035795776774e-05 -5.7070645771584211e-05  -9.6915048062684561e-08 -1.2885838916661674e-06 6.9818741241563614e-05  -1.7552928386450234e-07 3.8752858788156803e-08 3.3584974589236430e-05  -3.0321308367815833e-06 -1.2393930931747308e-06 4.0255655633919253e-05  -4.6225629118174336e-06 -1.9392663585381956e-05 1.5613971475006133e-05  -2.7702526360124739e-07 2.2200160729977732e-05 -3.6152125131521209e-05  1.7738007495944417e-07 -3.9410514580291842e-08 -4.5559778078338571e-05  -2.6240622747885099e-05 -7.4228126562097377e-06 -3.7101065729015685e-05  1.1013480459329986e-06 -9.1258756113405031e-07 -7.1597829814870707e-05  1.6218525048345658e-05 1.0584495440708506e-05 -4.0994605760130863e-06  -7.3653525009976738e-07 -1.6751048754909753e-06 -8.1121299301277486e-05  4.3807460564030252e-07 4.2730011998753494e-07 2.9875031210967903e-05  5.6392773310917294e-07 2.9114259337653101e-07 -1.7229017369560184e-05  4.1755189597095241e-07 -2.2496366909421318e-06 6.6099722672610181e-05  2.1294010089217755e-07 1.0334509759992467e-07 -2.6090958403281470e-05  -2.7352927107667752e-06 -2.4667571783027731e-05 -6.7299163189182715e-05  2.9881282984127715e-07 -9.5646264111330741e-08 5.5777932250574363e-05  -1.1296152652026607e-05 7.7541802357949597e-06 3.8767625805726633e-05  4.4906506825072722e-09 -1.4192736161246571e-07 -4.1886337872697570e-06  -2.0285396956210986e-06 1.1755430907059921e-06 -6.6903062752004039e-05  1.5894171100505018e-05 -3.4476340410447352e-06 2.8090093162189274e-05  1.0791562473887593e-05 2.0725548653897432e-05 -1.7390384473517931e-05  7.3798040615113270e-06 2.3299879576153291e-05 5.3452254201881722e-05  -1.5165849991186100e-05 -9.0642277022704689e-06 -6.0950231656549040e-06  -2.3993630941767816e-07 7.4929103892636178e-07 -2.8592189940880468e-05  2.4262412852126162e-06 4.5359965006586696e-06 1.7772069214662007e-04  2.3987008996773074e-07 -2.5610320968824182e-07 6.9047082287691296e-06  2.7971242197016543e-06 -8.0125121045181205e-06 -4.1411757851282909e-05  -1.0131027607882914e-05 6.5280564045780001e-06 -3.7366111732991621e-05  2.1049941267450890e-06 2.4792612783535417e-05 2.7280638519500775e-05  3.4269381162140787e-08 -1.9038255180535467e-07 1.5752896703180778e-05  -1.5391589211977100e-06 1.3786361983326547e-06 7.8262905925722870e-05  9.6340393080008194e-07 -3.2404301174056384e-06 -6.0970249387992808e-05  1.9603333552189821e-05 2.2723715989628601e-05 2.0400411860840186e-05  1.3477695531699535e-08 2.3210411069714341e-08 7.4103425833744394e-06  5.0651815006306622e-06 6.1718587173727311e-06 1.5029978723153630e-06  -8.1137616609775476e-06 -1.9322241754123573e-06 -1.1463929040406038e-05  8.0726694578013612e-07 -1.5690883081557576e-06 -2.6170638740208175e-05  -2.1171854167553584e-06 1.9700258278527017e-06 -2.6483160380191306e-05  2.6521286395120735e-07 -4.4652845936005977e-07 1.5975056606133635e-05  5.4583564248105703e-06 -9.5603096751965136e-07 -3.0944596178719901e-06  -6.7397545046936098e-07 -3.3189914208748196e-06 3.6134347559799324e-05  -6.5579120630741791e-07 4.1035980005175789e-07 2.2287921503655295e-05  4.4710357947214240e-07 3.9218710202512782e-08 -2.0914927616189448e-05  -8.6132260082735430e-07 -5.5938478645982970e-07 -2.5772390193031141e-05  3.1675031591316648e-07 6.1629159719980802e-07 1.9961244654304832e-05  -1.1946221271797765e-06 8.3369268045777459e-06 4.4794238345967081e-06  4.6833925822222095e-08 9.3223902064446373e-08 2.5285547068909788e-05  2.0728587930051088e-07 5.3719117286164223e-07 -2.6409180760682959e-05  6.8137727176132997e-08 -6.7834873078943167e-08 -3.2615459526248615e-05  1.2442108442771196e-06 -1.9696043999526788e-06 2.7459982581573867e-05  5.0739895837191488e-06 2.3035919648868345e-06 3.0499425040045461e-05  -6.1325607505290253e-07 -3.0410296178346415e-07 -1.2354519599266051e-05  -5.3864695874793494e-09 3.6694282816871792e-07 -2.3939163704799786e-05  -2.2142162391952293e-06 -1.0403897678556191e-05 -3.7403710213285935e-05  -1.4090640959464228e-06 -1.3693604704887265e-06 4.3046761724267505e-05  -8.9305279657108682e-06 -1.2346908230491374e-05 5.1029014066621986e-06  2.2897209660588293e-06 -1.0461407682623050e-06 -4.0149756980064601e-05  -7.0132033863463393e-06 3.3725684503801948e-06 -5.9195188160669286e-06  -1.0196230426286921e-07 1.6555765844681362e-07 3.1564478621351209e-05  9.3301891837391907e-06 3.5688588316536126e-06 -4.1969103844233232e-05  -5.0622197198888735e-06 -8.8620858512313868e-07 4.2390388853731745e-05  -1.0036415989535756e-05 1.3443708766246238e-05 2.3151198844318129e-05  2.9997000440921042e-06 -1.7479920504108523e-06 3.3244541569746963e-05  2.1894360962384129e-07 -4.2076390436295144e-07 2.9945039068490280e-05  2.9922240050672659e-06 1.0629535001626284e-05 5.0505033166070779e-05  3.8242494730696303e-06 1.2931668596904769e-05 -5.1409390422417617e-05  -3.1700783399928118e-06 8.0117526373791507e-06 -5.1869170718844105e-05  1.2509832251995283e-05 -1.4805062330344855e-05 -1.6837889043686988e-05  -7.3171690503050381e-07 3.1700391901792785e-06 5.1290564098397888e-05  2.5654584965591456e-06 -1.5223138508618396e-05 1.2257829058358365e-05  -8.2120005544983660e-07 -5.2818588365906597e-07 3.4074425664855143e-05  -1.0178471334984397e-05 -6.8127798315159638e-06 -3.7999907974390403e-05  -2.0817534945616006e-07 -1.4598446407313781e-06 -1.1573157074592652e-05  -1.0299713183492575e-06 -7.5724712217608827e-07 1.1022011818499718e-05  </DataArray> 
</PointData> 
</Piece>
</UnstructuredGrid>
</VTKFile>