<?xml version="1.0"?>
<VTKFile type="UnstructuredGrid"  version="0.1"  >
<UnstructuredGrid>
<Piece  NumberOfPoints="201" NumberOfCells="657">
<Points>
<DataArray  type="Float64"  NumberOfComponents="3"  format="ascii">-28.32792411512215 -2.441330898489102 53.89335081500592  -10.79612265622499 -15.48921915725222 -52.45342993964915  5563.784079238589 -104.7540940540498 -77.42141802474228  9272.756745155346 -110.091857899463 -138.6880876745567  11022.79942791672 -110.174804435402 -234.7730518701181  11796.0963758078 -112.1706291852149 -176.8539088103797  12025.88163765498 -119.7036388553842 9.103761797937258  11799.43049867543 -119.3539032878745 185.5458662823212  11024.15691183314 -117.6739724974549 232.9416954582516  9280.924819565334 -135.2606830899365 133.7004837067094  5573.992164629009 -74.8221977770996 74.13051538566219  6378.097562222943 -4323.723724532885 -117.8224961106609  6658.604297764313 3336.970424176535 96.69595123475308  11612.03425567996 -2840.57538212705 -93.67104897993912  9705.601175755432 -3601.891829580671 201.5404332797463  11078.53540912767 2806.692156354493 237.239831080175  11092.45448994264 2798.969764106651 -227.63773640606  7199.168746952193 3700.203020898271 -131.5613797901204  2669.408262422113 -4256.490859598507 84.67601335586664  9715.782973031244 -3358.445989969999 -192.3750683153123  6801.091116474687 -6648.935097021593 -190.5791888900991  9178.29673243941 -5823.347556049909 -211.154855334808  6206.211231679245 -8239.00159120217 -232.8999117585122  8301.812567455199 -7292.590569050771 -146.7414850193371  5174.325436350113 -9218.74725876417 -125.7413589337171  7299.472330020426 -8172.283653710678 25.02648042235545  3796.68464041124 -9774.859132050846 54.83553375408892  5747.701113638778 -8769.768414727419 192.362924991855  2022.827852320327 -9908.122654352479 194.0899889047867  3986.766020214622 -8796.894049455906 227.5555057014675  -222.2495382162192 -9418.54146709542 225.4956278171217  8771.2654668218 -6822.395376319729 148.5754521870825  9828.862745582152 3145.130688376275 207.1212289841996  9138.114955287243 5672.697994818592 230.5250578136496  10278.28655441853 5027.881450231834 138.8460683276166  1653.710492844533 -8012.426257987448 143.369408717211  6035.903592028843 -6798.328770653994 171.8513560626421  7043.50452738428 6169.789113443963 188.0424527894955  6098.355479040958 8103.73635994219 218.7305543761155  11630.54903681552 -2780.443643909815 91.57877490146288  10164.56948093892 -5601.643526491672 7.203916641864523  11145.78443177766 -3012.66066021604 -201.4047217441036  2714.600252635458 4223.357564567686 -76.90868219063583  9793.986353864184 3116.856229907644 -206.5682530826609  9083.846625474096 5669.315959124713 -237.1315663725121  2566.409512098133 -9738.338377563532 -209.0861157683782  -1929.966301899122 -9933.254525768976 192.3480388264695  3155.268859464324 -7386.836691820927 -136.9044055321002  10215.30889530085 5112.889910536948 -147.1942772691072  7765.552930990769 7546.535623647675 -169.5156063383807  6008.347229570602 8022.188638429322 -224.957520292171  4426.442036225712 9328.743426754894 -163.9325998878705  2121.708004068109 9397.445624676171 -218.0025192310185  587.3893100640132 10075.32290805717 -151.2102141000504  -2063.304208016901 9587.958441371351 -214.3111330567142  -3204.894510075795 9856.579590995441 -126.3289541039778  -5812.094761107731 8745.05118315079 -205.429090610101  -604.6864580527392 10255.983494014 14.64252457776342  -4405.71786101468 -8763.339012088867 216.645619117051  -5559.850684732804 -8918.096144215046 152.2769249316913  -6542.576108932099 8711.508779179636 -64.33290531386204  -8750.796641754856 7015.412211408333 -155.5475292712215  -9116.654164301379 6842.194055356921 12.50688006500681  -10792.38321079117 4552.717857599541 -99.3295167488584  -10897.91698039465 4321.334599437439 91.6501126320525  -10171.0428759924 4624.409374240162 -218.9510543965739  -9064.321735683501 6549.074356770845 185.7006032657381  -11554.03291468539 2004.073356997239 -176.6405359357605  -10647.20182068674 3789.261182691784 214.7492996968655  -10848.17650765162 1449.08344182486 -229.4527623350999  -11419.07451075822 -1326.595712456285 -225.6968698395849  -8482.264437280668 6062.308209174919 218.2528623339041  -2484.95628245571 -6033.369518901646 93.88033043307462  -7874.510955660874 -7165.898813788831 211.2741089529625  -10270.79619595842 -2045.228606781516 -208.6915048277688  -10173.09864604011 -4488.453367250539 -221.7916864613829  -11713.9837041237 1300.505922013086 160.4643976137028  -4725.182393759395 8138.128168198957 -212.5585449213241  -9846.929235547308 2787.941005732901 195.3957400327881  3214.858815197645 8335.246073133627 195.7277642863925  -11264.16022622386 -3414.652981865483 -111.7944407045617  -9115.870663685295 993.2928992063878 -141.0656949960083  -7011.549397447903 5331.504247171555 145.6206702312354  -8161.858383793946 -5403.934379181635 -201.7877484443592  -7709.456026845319 -7180.051531902908 -221.4446334543738  -6360.544741328286 8299.481341279474 219.0585723935695  -3158.106813702102 -9911.095206315684 45.4982437445781  -7935.686991456753 994.7860394279181 100.909324196735  -10274.23883542491 -1076.258424381013 193.5780349922157  -4913.330516886341 -7948.795026242495 -209.6535903272985  -4442.41571921812 -9126.111423538496 -213.2443923193651  -4877.636344636134 -5853.274843466218 -129.1051198765347  6268.553503142131 8737.476275421497 -16.38468383238506  -8428.595839016685 -7244.459984294888 102.5563233378406  -10318.44423756681 -4978.129522618962 179.1488749575961  2405.978735188557 9556.331197309033 214.5630476533365  -886.0271321497872 9227.185829554564 209.8212621161292  -295.3040576869452 7866.978201562044 155.8683637254063  -4689.410106709862 3865.916975712355 89.37805740059983  -6663.988592064185 -6654.938851621002 196.2879916678014  3512.12224432351 8206.02301120379 -190.4952842796626  -6966.254242451744 -8232.898275891135 -134.230469174448  -1141.81526341468 7129.700482293951 -123.3964565729945  -2926.634428368521 3488.901692984653 -77.12656308194018  -1402.30456683552 9985.090680347988 176.857387221719  -3902.570091546346 -2487.79311274473 69.23793780729639  -1040.275991369963 -9499.160558041021 -216.4903251267907  -7448.276697583468 -3403.648699702623 129.0933615954283  -9694.611272071234 -4544.252682792797 215.6419109394923  -11232.31159644123 -2001.672978837645 238.0927365908634  -11577.46958468107 -2476.720664089569 97.516547800662  -11926.92516841073 -234.5931878333864 -62.27826379335238  -6018.478540613422 5912.178546106808 -147.9956199324013  -8216.57743488762 5870.347215788305 -207.5606408408434  -1161.732689903031 -10055.90616845268 -175.9541651555382  -447.6244875118274 8956.766449163582 -204.8655888781838  5027.449000026403 9144.949934267906 148.6796755645755  11122.37950536733 -2885.38229031891 202.8963451062992  799.1325912536394 -4476.132610472732 -71.1991029725621  1848.560766966011 -10158.50899877969 -97.46279325067431  -4416.578207141468 8032.549937992001 192.2154377242797  11612.96256918099 2455.807368226637 -98.59090514610241  7958.448003148167 7439.001560493817 155.7086107168265  9152.734382248986 6557.806619823678 -8.265067711782722  -9506.069713774739 -6113.76577965097 -146.2009673234272  -4031.104583820058 9736.013962658677 43.95259454549858  -6786.236347119237 8512.512599338503 113.6462921210907  -914.8828794723873 -8104.234565298591 -152.2432096323541  -4253.356854235975 -1771.160200716893 -70.62958013327174  -8047.766921004839 -2437.069322545557 -125.2425591609488  2873.898156174735 9970.863118323579 -29.23601427966834  232.3395879103809 -10288.6341293677 76.3662154980202  7310.079498705008 -7269.808577062877 219.9292211120021  11607.58962536765 2491.316918430784 99.12176572284709  7043.528274119062 -3812.193763454661 133.0796994073741  -10338.20643741533 -5360.487834755996 16.0460231700947  -2755.57524097953 -8306.17476000528 175.981461622158  7257.731304586921 5996.496963532135 -192.6000234398983  -11206.69679374161 987.1978883259045 235.7152272261764  3057.994566613259 -8921.281082248515 -217.2106985607111  4012.464297986696 6628.516497496012 128.6687367135334  1793.344339815061 10047.68812925025 123.9197238129696  -8098.946634613436 7081.910318044958 -219.3336282238197  10330.26196156224 -5091.707817245933 -141.0776111878498  -236.56864944748 4119.90402288805 66.63984243028857  9771.373370156889 -5243.956110200435 201.212321267061  -11621.40485695274 2563.644058717003 -14.94137353586241  -6336.74464213884 -8714.352824572776 -2.101470549363214  -3953.924204329246 -9634.438467019192 -104.6357730870368  10860.92773302946 4336.392694756857 -4.781913218153232  -3562.195301641554 6848.103121972449 134.3350147217627  4585.328529639546 6170.156225765842 -136.5721562157164  -5954.948644437452 1225.163615470068 -74.07557765690046  -4582.296138335233 9353.227793565928 174.7120423771314  10526.63530827951 -4764.509931203664 147.6215707391381  -926.4875781289556 -10272.33407272364 -56.17643064236032  -9435.61220951478 3429.584456660322 -172.8640432669481  -7149.506480888085 3278.774062888304 -115.6338704027166  -3712.719763969821 9137.320004932164 221.6748273546359  -8607.276711662395 -7160.397365831808 -36.59712784104669  -5.395083064505212 -10.70771809779302 1.308278115991611  -5354.949419679618 -5489.506415031198 0.7430988387091528  8030.746592469539 2096.576745053262 -5.193433453711668  -3226.067102267695 6024.59433242864 26.09051660174941  5996.505541532666 -4298.918898549207 30.25973417650644  -4330.902480045541 755.4629870510385 -27.99352876975327  -8198.946893193002 1187.028987478242 -1.175665492613807  1672.712160096367 6718.292147027262 -25.89952161577772  5774.538379414384 -3476.059122031867 -25.50264723057536  -4775.391424680423 -666.3815783452214 32.61066289076414  4379.440096206336 5076.117324143234 34.3735386171267  -1681.691095593857 -5847.221485172064 -42.54069464769017  1269.350551095924 -7806.393542883961 -0.4804121121845253  3679.014976749328 2385.495377909274 -34.85413948428859  -14
[...]
<PointData  Vectors="Tidal Force"> 
<DataArray  type="Float64"  Name="Tidal Force"  NumberOfComponents="3" format="ascii">-3.7285711463918673e-27 -3.9743389384960911e-15 0.0000000000000000e+00  -2.3713487878332610e-26 -2.5276556230826796e-14 0.0000000000000000e+00  -1.6036225120279960e-25 -1.7093248705658339e-13 0.0000000000000000e+00  -1.6852692356251913e-25 -1.7963533165985644e-13 0.0000000000000000e+00  -1.6865046055833332e-25 -1.7976701156444516e-13 0.0000000000000000e+00  -1.7171080886373028e-25 -1.8302908192812044e-13 0.0000000000000000e+00  -1.8323905670039064e-25 -1.9531721120633198e-13 0.0000000000000000e+00  -1.8269998617320147e-25 -1.9474260798630845e-13 0.0000000000000000e+00  -1.8012817053306974e-25 -1.9200127179077954e-13 0.0000000000000000e+00  -2.0704800498457970e-25 -2.2069552009070462e-13 0.0000000000000000e+00  -1.1453002575573573e-25 -1.2207924245416607e-13 0.0000000000000000e+00  -6.6187135481468120e-24 -7.0549843208991253e-12 0.0000000000000000e+00  5.1081986237367731e-24 5.4449042002417306e-12 0.0000000000000000e+00  -4.3483281778016917e-24 -4.6349470925666857e-12 0.0000000000000000e+00  -5.5137312737688126e-24 -5.8771674288550573e-12 0.0000000000000000e+00  4.2964594855137078e-24 4.5796594889900467e-12 0.0000000000000000e+00  4.2846336258234950e-24 4.5670541308507809e-12 0.0000000000000000e+00  5.6642330265784429e-24 6.0375894653453769e-12 0.0000000000000000e+00  -6.5157903846796186e-24 -6.9452770040260907e-12 0.0000000000000000e+00  -5.1410706952593306e-24 -5.4799430257627489e-12 0.0000000000000000e+00  -1.0178123240043114e-23 -1.0849011571861790e-11 0.0000000000000000e+00  -8.9143116962740085e-24 -9.5018962206680806e-12 0.0000000000000000e+00  -1.2612172668570068e-23 -1.3443500731973457e-11 0.0000000000000000e+00  -1.1163420626749132e-23 -1.1899254578160217e-11 0.0000000000000000e+00  -1.4111967950934228e-23 -1.5042154628182674e-11 0.0000000000000000e+00  -1.2510041264939682e-23 -1.3334637363579831e-11 0.0000000000000000e+00  -1.4963250158453819e-23 -1.5949548879803169e-11 0.0000000000000000e+00  -1.3424664259404001e-23 -1.4309547493553089e-11 0.0000000000000000e+00  -1.5167254661086974e-23 -1.6167000285880823e-11 0.0000000000000000e+00  -1.3466189535951543e-23 -1.4353809897845527e-11 0.0000000000000000e+00  -1.4417795014708235e-23 -1.5368140202892483e-11 0.0000000000000000e+00  -1.0443654781909729e-23 -1.1132045555874840e-11 0.0000000000000000e+00  4.8145399540504641e-24 5.1318890961339114e-12 0.0000000000000000e+00  8.6837018169968702e-24 9.2560857515021822e-12 0.0000000000000000e+00  7.6966299898055220e-24 8.2039513429378449e-12 0.0000000000000000e+00  -1.2265342552821733e-23 -1.3073809399840608e-11 0.0000000000000000e+00  -1.0406807065249151e-23 -1.1092769031606148e-11 0.0000000000000000e+00  9.4446504039863284e-24 1.0067192065617273e-11 0.0000000000000000e+00  1.2405113432949503e-23 1.3222793240982335e-11 0.0000000000000000e+00  -4.2562762699661469e-24 -4.5368276072974597e-12 0.0000000000000000e+00  -8.5749274921824760e-24 -9.1401415955118080e-12 0.0000000000000000e+00  -4.6117539754214736e-24 -4.9157365327515178e-12 0.0000000000000000e+00  6.4650728325799022e-24 6.8912164177422100e-12 0.0000000000000000e+00  4.7712570829715661e-24 5.0857532459261893e-12 0.0000000000000000e+00  8.6785244938086565e-24 9.2505671664098721e-12 0.0000000000000000e+00  -1.4907344052529908e-23 -1.5889957737526562e-11 0.0000000000000000e+00  -1.5205725204647113e-23 -1.6208006605259794e-11 0.0000000000000000e+00  -1.1307689376588137e-23 -1.2053032764919014e-11 0.0000000000000000e+00  7.8267593689417930e-24 8.3426581660714408e-12 0.0000000000000000e+00  1.1552163475986425e-23 1.2313621310649894e-11 0.0000000000000000e+00  1.2280284913997259e-23 1.3089736682845636e-11 0.0000000000000000e+00  1.4280343260910977e-23 1.5221628352686901e-11 0.0000000000000000e+00  1.4385512551574792e-23 1.5333729849643365e-11 0.0000000000000000e+00  1.5423195239824015e-23 1.6439811120937619e-11 0.0000000000000000e+00  1.4677155322102134e-23 1.5644596177126305e-11 0.0000000000000000e+00  1.5088348212669656e-23 1.6082892739549877e-11 0.0000000000000000e+00  1.3386839477412893e-23 1.4269229500948105e-11 0.0000000000000000e+00  1.5699755266226042e-23 1.6734600529160317e-11 0.0000000000000000e+00  -1.3414820606964807e-23 -1.4299054999337452e-11 0.0000000000000000e+00  -1.3651725257710478e-23 -1.4551575158187168e-11 0.0000000000000000e+00  1.3335487394380133e-23 1.4214492558790656e-11 0.0000000000000000e+00  1.0739121583989318e-23 1.1446987974949820e-11 0.0000000000000000e+00  1.0473966268428137e-23 1.1164355016100746e-11 0.0000000000000000e+00  6.9692553890875634e-24 7.4286320356198439e-12 0.0000000000000000e+00  6.6150523608163194e-24 7.0510818073631322e-12 0.0000000000000000e+00  7.0789955485965036e-24 7.5456056890460920e-12 0.0000000000000000e+00  1.0025263053677030e-23 1.0686075646283867e-11 0.0000000000000000e+00  3.0678110630077145e-24 3.2700250270024563e-12 0.0000000000000000e+00  5.8005561014594003e-24 6.1828982400590363e-12 0.0000000000000000e+00  2.2182471427935407e-24 2.3644623231457882e-12 0.0000000000000000e+00  -2.0307292137835861e-24 -2.1645841988805193e-12 0.0000000000000000e+00  9.2801159715158036e-24 9.8918123890557157e-12 0.0000000000000000e+00  -9.2358167278804337e-24 -9.8445931723602401e-12 0.0000000000000000e+00  -1.0969478773956838e-23 -1.1692529098856334e-11 0.0000000000000000e+00  -3.1308093155549589e-24 -3.3371757928924980e-12 0.0000000000000000e+00  -6.8708750178755367e-24 -7.3237669479655495e-12 0.0000000000000000e+00  1.9908043028636367e-24 2.1220276478975265e-12 0.0000000000000000e+00  1.2457757039120324e-23 1.3278906836687758e-11 0.0000000000000000e+00  4.2677427493049002e-24 4.5490498966233767e-12 0.0000000000000000e+00  1.2759501766714470e-23 1.3600540989095930e-11 0.0000000000000000e+00  -5.2271198281619038e-24 -5.5716640647590048e-12 0.0000000000000000e+00  1.5205158057529964e-24 1.6207402074788727e-12 0.0000000000000000e+00  8.1614210906024305e-24 8.6993790276022996e-12 0.0000000000000000e+00  -8.2722899290276712e-24 -8.8175557565204719e-12 0.0000000000000000e+00  -1.0991153901404236e-23 -1.1715632936661446e-11 0.0000000000000000e+00  1.2704769262250793e-23 1.3542200805912915e-11 0.0000000000000000e+00  -1.5171791838024149e-23 -1.6171836529649353e-11 0.0000000000000000e+00  1.5228180861295337e-24 1.6231942420643900e-12 0.0000000000000000e+00  -1.6475230680859652e-24 -1.7561191202965001e-12 0.0000000000000000e+00  -1.2167933631622246e-23 -1.2969979795072399e-11 0.0000000000000000e+00  -1.3970153095057534e-23 -1.4890992083165027e-11 0.0000000000000000e+00  -8.9601270757670979e-24 -9.5507315089198723e-12 0.0000000000000000e+00  1.3375238230442343e-23 1.4256863560817183e-11 0.0000000000000000e+00  -1.1089747654699942e-23 -1.1820725471423667e-11 0.0000000000000000e+00  -7.6204694318860740e-24 -8.1227706817588953e-12 0.0000000000000000e+00  1.4628723204424978e-23 1.5592971669077314e-11 0.0000000000000000e+00  1.4124883182314804e-23 1.5055921163662407e-11 0.0000000000000000e+00  1.2042683963820634e-23 1.2836474328170056e-11 0.0000000000000000e+00  5.9179050168468960e-24 6.3079821785179083e-12 0.0000000000000000e+00  -1.0187309900277296e-23 -1.0858803768403025e-11 0.0000000000000000e+00  1.2561696575143988e-23 1.3389697520048544e-11 0.0000000000000000e+00  -1.2602834394750113e-23 -1.3433546928276591e-11 0.0000000000000000e+00  1.0914072431334176e-23 1.1633470661648291e-11 0.0000000000000000e+00  5.3407738643109570e-24 5.6928095769806323e-12 0.0000000000000000e+00  1.5285080878503754e-23 1.6292592987607426e-11 0.0000000000000000e+00  -3.8082918159179591e-24 -4.0593143751072791e-12 0.0000000000000000e+00  -1.4541219704162594e-23 -1.5499700398477037e-11 0.0000000000000000e+00  -5.2102682588692505e-24 -5.5537017286830611e-12 0.0000000000000000e+00  -6.9562896198450652e-24 -7.4148116310882364e-12 0.0000000000000000e+00  -3.0641386450412379e-24 -3.2661105425660459e-12 0.0000000000000000e+00  -3.7913335555834661e-24 -4.0412383154773721e-12 0.0000000000000000e+00  -3.5911643151385398e-25 -3.8278749718921761e-13 0.0000000000000000e+00  9.0503034673934644e-24 9.6468518538194343e-12 0.0000000000000000e+00  8.9862607656997919e-24 9.5785877941905973e-12 0.0000000000000000e+00  -1.5393473361694721e-23 -1.6408130132983615e-11 0.0000000000000000e+00  1.3710927555295432e-23 1.4614679759736210e-11 0.0000000000000000e+00  1.3998998983580146e-23 1.4921739340886495e-11 0.0000000000000000e+00  -4.4169080564325415e-24 -4.7080473959640546e-12 0.0000000000000000e+00  -6.8520131647419074e-24 -7.3036618207149345e-12 0.0000000000000000e+00  -1.5550539421236477e-23 -1.6575549160767763e-11 0.0000000000000000e+00  1.2296142572005407e-23 1.3106639594234662e-11 0.0000000000000000e+00  3.7593206277136171e-24 4.0071152638382668e-12 0.0000000000000000e+00  1.1387544813746026e-23 1.2138151852335207e-11 0.0000000000000000e+00  1.0038616279860945e-23 1.0700309046879867e-11 0.0000000000000000e+00  -9.3588876523013240e-24 -9.9757762845816543e-12 0.0000000000000000e+00  1.4903789556241251e-23 1.5886168947544530e-11 0.0000000000000000e+00  1.3030873239292302e-23 1.3889799841325901e-11 0.0000000000000000e+00  -1.2405871500878365e-23 -1.3223601276760493e-11 0.0000000000000000e+00  -2.7112776777699751e-24 -2.8899908369091846e-12 0.0000000000000000e+00  -3.7306375834127593e-24 -3.9765415841728482e-12 0.0000000000000000e+00  1.5263287829378532e-23 1.6269363455347931e-11 0.0000000000000000e+00  -1.5749731596350874e-23 -1.6787871036016665e-11 0.0000000000000000e+00  -1.1128538271385597e-23 -1.1862072961464527e-11 0.0000000000000000e+00  3.8136881365078426e-24 4.0650663927577232e-12 0.0000000000000000e+00  -5.8356630695425955e-24 -6.2203192747630684e-12 0.0000000000000000e+00  -8.2057708720997240e-24 -8.7466521133496531e-12 0.0000000000000000e+00  -1.2715000371631404e-23 -1.3553106296192946e-11 0.0000000000000000e+00  9.1793771667473257e-24 9.7844334123138186e-12 0.0000000000000000e+00  1.5111887625690252e-24 1.6107983746824239e-12 0.0000000000000000e+00  -1.3656604969045141e-23 -1.4556776514418423e-11 0.0000000000000000e+00  1.0146868380102126e-23 1.0815696556000843e-11 0.0000000000000000e+00  1.5380895049393641e-23 1.6394722724516399e-11 0.0000000000000000e+00  1.0840921683858201e-23 1.1555498201781139e-11 0.0000000000000000e+00  -7.7943365228585609e-24 -8.3080981765671097e-12 0.0000000000000000e+00  6.3067152499000877e-24 6.7224207364100893e-12 0.0000000000000000e+00  -8.0273834501440351e-24 -8.5565063311235318e-12 0.0000000000000000e+00  3.9243941307113296e-24 4.1830695436198469e-12 0.0000000000000000e+00  -1.3339839265823586e-23 -1.4219131282702304e-11 0.0000000000000000e+00  -1.4748295785737129e-23 -1.5720425845818783e-11 0.0000000000000000e+00  6.6380976258536567e-24 7.0756460950191378e-12 0.0000000000000000e+00  1.0483001315076548e-23 1.1173985605486349e-11 0.0000000000000000e+00  9.4452119357854839e-24 1.0067790610638131e-11 0.0000000000000000e+00  1.8754712866351091e-24 1.9990924860635338e-12 0.0000000000000000e+00  1.4317825508504598e-23 1.5261581232829159e-11 0.0000000000000000e+00  -7.2934557733299337e-24 -7.7742020034121201e-12 0.0000000000000000e+00  -1.5724782738514401e-23 -1.6761277680739952e-11 0.0000000000000000e+00  5.2499741723875293e-24 5.5960248471079195e-12 0.0000000000000000e+00  5.0191172191187602e-24 5.3499510181328415e-12 0.0000000000000000e+00  1.3987313506839723e-23 1.4909283619002442e-11 0.0000000000000000e+00  -1.0961061412287498e-23 -1.1683556908993675e-11 0.0000000000000000e+00  -1.6396728535337727e-26 -1.7477514609049075e-14 0.0000000000000000e+00  -8.4032784518166529e-24 -8.9571783535359825e-12 0.0000000000000000e+00  3.2094181521187234e-24 3.4209661103623875e-12 0.0000000000000000e+00  9.2223848872446377e-24 9.8302759754613213e-12 0.0000000000000000e+00  -6.5807427678879233e-24 -7.0145107065887171e-12 0.0000000000000000e+00  1.1564578944065750e-24 1.2326855141061062e-12 0.0000000000000000e+00  1.8171000561129049e-24 1.9368737311453608e-12 0.0000000000000000e+00  1.0284292057309425e-23 1.0962178478955382e-11 0.0000000000000000e+00  -5.3211146360225264e-24 -5.6718545158003994e-12 0.0000000000000000e+00  -1.0200898969816856e-24 -1.0873288557907784e-12 0.0000000000000000e+00  7.7704658060764635e-24 8.2826540277304416e-12 0.0000000000000000e+00  -8.9508618010810339e-24 -9.5408555160757185e-12 0.0000000000000000e+00  -1.1949941371872127e-23 -1.2737618632525174e-11 0.0000000000000000e+00  3.6516862124515099e-24 3.8923861542402352e-12 0.0000000000000000e+00  -9.8656981776290329e-24 -1.0515993093156903e-11 0.0000000000000000e+00  -1.4461409189548637e-24 -1.5414629194662512e-12 0.0000000000000000e+00  9.3328269615025222e-24 9.9479978101636421e-12 0.0000000000000000e+00  -4.3393548996511890e-24 -4.6253823431333778e-12 0.0000000000000000e+00  3.6613557900329652e-25 3.9026930994994068e-13 0.0000000000000000e+00  6.5312325091563921e-24 6.9617369920996816e-12 0.0000000000000000e+00  1.2277016798926175e-23 1.3086253150824244e-11 0.0000000000000000e+00  7.4175486856252848e-24 7.9064744675714945e-12 0.0000000000000000e+00  9.8274522467885574e-24 1.0475226191786275e-11 0.0000000000000000e+00  5.1200974825608765e-24 5.4575873692337083e-12 0.0000000000000000e+00  -3.9276453998284399e-24 -4.1865351192906141e-12 0.0000000000000000e+00  9.1080345516646304e-24 9.7083882674138287e-12 0.0000000000000000e+00  -4.1574803652227461e-24 -4.4315195963277303e-12 0.0000000000000000e+00  5.7995565748569031e-25 6.1818328299219088e-13 0.0000000000000000e+00  -9.9547234290671304e-24 -1.0610886420763706e-11 0.0000000000000000e+00  4.0814321136631296e-24 4.3504586441529523e-12 0.0000000000000000e+00  -4.8941090099907852e-24 -5.2167029255894686e-12 0.0000000000000000e+00  -1.2312747067306433e-23 -1.3124338570501429e-11 0.0000000000000000e+00  -1.2715011602267388e-23 -1.3553118267093362e-11 0.0000000000000000e+00  -1.1858091615484278e-23 -1.2639714623463456e-11 0.0000000000000000e+00  9.7134837528319766e-24 1.0353745494352966e-11 0.0000000000000000e+00  -1.1718944035653570e-23 -1.2491395167294882e-11 0.0000000000000000e+00  1.2981565132008465e-23 1.3837241603044373e-11 0.0000000000000000e+00  -5.6921804642224079e-24 -6.0673790510334723e-12 0.0000000000000000e+00  6.2396290458549918e-24 6.6509125627682027e-12 0.0000000000000000e+00  7.1876463364150819e-24 7.6614181651318771e-12 0.0000000000000000e+00  3.8934537285778672e-24 4.1500897129705797e-12 0.0000000000000000e+00  </DataArray> 
</PointData> 
</Piece>
</UnstructuredGrid>
</VTKFile>