<?xml version="1.0"?>
<VTKFile type="UnstructuredGrid"  version="0.1"  >
<UnstructuredGrid>
<Piece  NumberOfPoints="201" NumberOfCells="657">
<Points>
<DataArray  type="Float64"  NumberOfComponents="3"  format="ascii">-28.32792411512215 -2.441330898489102 53.89335081500592  -10.79612265622499 -15.48921915725222 -52.45342993964915  5563.784079238589 -104.7540940540498 -77.42141802474228  9272.756745155346 -110.091857899463 -138.6880876745567  11022.79942791672 -110.174804435402 -234.7730518701181  11796.0963758078 -112.1706291852149 -176.8539088103797  12025.88163765498 -119.7036388553842 9.103761797937258  11799.43049867543 -119.3539032878745 185.5458662823212  11024.15691183314 -117.6739724974549 232.9416954582516  9280.924819565334 -135.2606830899365 133.7004837067094  5573.992164629009 -74.8221977770996 74.13051538566219  6378.097562222943 -4323.723724532885 -117.8224961106609  6658.604297764313 3336.970424176535 96.69595123475308  11612.03425567996 -2840.57538212705 -93.67104897993912  9705.601175755432 -3601.891829580671 201.5404332797463  11078.53540912767 2806.692156354493 237.239831080175  11092.45448994264 2798.969764106651 -227.63773640606  7199.168746952193 3700.203020898271 -131.5613797901204  2669.408262422113 -4256.490859598507 84.67601335586664  9715.782973031244 -3358.445989969999 -192.3750683153123  6801.091116474687 -6648.935097021593 -190.5791888900991  9178.29673243941 -5823.347556049909 -211.154855334808  6206.211231679245 -8239.00159120217 -232.8999117585122  8301.812567455199 -7292.590569050771 -146.7414850193371  5174.325436350113 -9218.74725876417 -125.7413589337171  7299.472330020426 -8172.283653710678 25.02648042235545  3796.68464041124 -9774.859132050846 54.83553375408892  5747.701113638778 -8769.768414727419 192.362924991855  2022.827852320327 -9908.122654352479 194.0899889047867  3986.766020214622 -8796.894049455906 227.5555057014675  -222.2495382162192 -9418.54146709542 225.4956278171217  8771.2654668218 -6822.395376319729 148.5754521870825  9828.862745582152 3145.130688376275 207.1212289841996  9138.114955287243 5672.697994818592 230.5250578136496  10278.28655441853 5027.881450231834 138.8460683276166  1653.710492844533 -8012.426257987448 143.369408717211  6035.903592028843 -6798.328770653994 171.8513560626421  7043.50452738428 6169.789113443963 188.0424527894955  6098.355479040958 8103.73635994219 218.7305543761155  11630.54903681552 -2780.443643909815 91.57877490146288  10164.56948093892 -5601.643526491672 7.203916641864523  11145.78443177766 -3012.66066021604 -201.4047217441036  2714.600252635458 4223.357564567686 -76.90868219063583  9793.986353864184 3116.856229907644 -206.5682530826609  9083.846625474096 5669.315959124713 -237.1315663725121  2566.409512098133 -9738.338377563532 -209.0861157683782  -1929.966301899122 -9933.254525768976 192.3480388264695  3155.268859464324 -7386.836691820927 -136.9044055321002  10215.30889530085 5112.889910536948 -147.1942772691072  7765.552930990769 7546.535623647675 -169.5156063383807  6008.347229570602 8022.188638429322 -224.957520292171  4426.442036225712 9328.743426754894 -163.9325998878705  2121.708004068109 9397.445624676171 -218.0025192310185  587.3893100640132 10075.32290805717 -151.2102141000504  -2063.304208016901 9587.958441371351 -214.3111330567142  -3204.894510075795 9856.579590995441 -126.3289541039778  -5812.094761107731 8745.05118315079 -205.429090610101  -604.6864580527392 10255.983494014 14.64252457776342  -4405.71786101468 -8763.339012088867 216.645619117051  -5559.850684732804 -8918.096144215046 152.2769249316913  -6542.576108932099 8711.508779179636 -64.33290531386204  -8750.796641754856 7015.412211408333 -155.5475292712215  -9116.654164301379 6842.194055356921 12.50688006500681  -10792.38321079117 4552.717857599541 -99.3295167488584  -10897.91698039465 4321.334599437439 91.6501126320525  -10171.0428759924 4624.409374240162 -218.9510543965739  -9064.321735683501 6549.074356770845 185.7006032657381  -11554.03291468539 2004.073356997239 -176.6405359357605  -10647.20182068674 3789.261182691784 214.7492996968655  -10848.17650765162 1449.08344182486 -229.4527623350999  -11419.07451075822 -1326.595712456285 -225.6968698395849  -8482.264437280668 6062.308209174919 218.2528623339041  -2484.95628245571 -6033.369518901646 93.88033043307462  -7874.510955660874 -7165.898813788831 211.2741089529625  -10270.79619595842 -2045.228606781516 -208.6915048277688  -10173.09864604011 -4488.453367250539 -221.7916864613829  -11713.9837041237 1300.505922013086 160.4643976137028  -4725.182393759395 8138.128168198957 -212.5585449213241  -9846.929235547308 2787.941005732901 195.3957400327881  3214.858815197645 8335.246073133627 195.7277642863925  -11264.16022622386 -3414.652981865483 -111.7944407045617  -9115.870663685295 993.2928992063878 -141.0656949960083  -7011.549397447903 5331.504247171555 145.6206702312354  -8161.858383793946 -5403.934379181635 -201.7877484443592  -7709.456026845319 -7180.051531902908 -221.4446334543738  -6360.544741328286 8299.481341279474 219.0585723935695  -3158.106813702102 -9911.095206315684 45.4982437445781  -7935.686991456753 994.7860394279181 100.909324196735  -10274.23883542491 -1076.258424381013 193.5780349922157  -4913.330516886341 -7948.795026242495 -209.6535903272985  -4442.41571921812 -9126.111423538496 -213.2443923193651  -4877.636344636134 -5853.274843466218 -129.1051198765347  6268.553503142131 8737.476275421497 -16.38468383238506  -8428.595839016685 -7244.459984294888 102.5563233378406  -10318.44423756681 -4978.129522618962 179.1488749575961  2405.978735188557 9556.331197309033 214.5630476533365  -886.0271321497872 9227.185829554564 209.8212621161292  -295.3040576869452 7866.978201562044 155.8683637254063  -4689.410106709862 3865.916975712355 89.37805740059983  -6663.988592064185 -6654.938851621002 196.2879916678014  3512.12224432351 8206.02301120379 -190.4952842796626  -6966.254242451744 -8232.898275891135 -134.230469174448  -1141.81526341468 7129.700482293951 -123.3964565729945  -2926.634428368521 3488.901692984653 -77.12656308194018  -1402.30456683552 9985.090680347988 176.857387221719  -3902.570091546346 -2487.79311274473 69.23793780729639  -1040.275991369963 -9499.160558041021 -216.4903251267907  -7448.276697583468 -3403.648699702623 129.0933615954283  -9694.611272071234 -4544.252682792797 215.6419109394923  -11232.31159644123 -2001.672978837645 238.0927365908634  -11577.46958468107 -2476.720664089569 97.516547800662  -11926.92516841073 -234.5931878333864 -62.27826379335238  -6018.478540613422 5912.178546106808 -147.9956199324013  -8216.57743488762 5870.347215788305 -207.5606408408434  -1161.732689903031 -10055.90616845268 -175.9541651555382  -447.6244875118274 8956.766449163582 -204.8655888781838  5027.449000026403 9144.949934267906 148.6796755645755  11122.37950536733 -2885.38229031891 202.8963451062992  799.1325912536394 -4476.132610472732 -71.1991029725621  1848.560766966011 -10158.50899877969 -97.46279325067431  -4416.578207141468 8032.549937992001 192.2154377242797  11612.96256918099 2455.807368226637 -98.59090514610241  7958.448003148167 7439.001560493817 155.7086107168265  9152.734382248986 6557.806619823678 -8.265067711782722  -9506.069713774739 -6113.76577965097 -146.2009673234272  -4031.104583820058 9736.013962658677 43.95259454549858  -6786.236347119237 8512.512599338503 113.6462921210907  -914.8828794723873 -8104.234565298591 -152.2432096323541  -4253.356854235975 -1771.160200716893 -70.62958013327174  -8047.766921004839 -2437.069322545557 -125.2425591609488  2873.898156174735 9970.863118323579 -29.23601427966834  232.3395879103809 -10288.6341293677 76.3662154980202  7310.079498705008 -7269.808577062877 219.9292211120021  11607.58962536765 2491.316918430784 99.12176572284709  7043.528274119062 -3812.193763454661 133.0796994073741  -10338.20643741533 -5360.487834755996 16.0460231700947  -2755.57524097953 -8306.17476000528 175.981461622158  7257.731304586921 5996.496963532135 -192.6000234398983  -11206.69679374161 987.1978883259045 235.7152272261764  3057.994566613259 -8921.281082248515 -217.2106985607111  4012.464297986696 6628.516497496012 128.6687367135334  1793.344339815061 10047.68812925025 123.9197238129696  -8098.946634613436 7081.910318044958 -219.3336282238197  10330.26196156224 -5091.707817245933 -141.0776111878498  -236.56864944748 4119.90402288805 66.63984243028857  9771.373370156889 -5243.956110200435 201.212321267061  -11621.40485695274 2563.644058717003 -14.94137353586241  -6336.74464213884 -8714.352824572776 -2.101470549363214  -3953.924204329246 -9634.438467019192 -104.6357730870368  10860.92773302946 4336.392694756857 -4.781913218153232  -3562.195301641554 6848.103121972449 134.3350147217627  4585.328529639546 6170.156225765842 -136.5721562157164  -5954.948644437452 1225.163615470068 -74.07557765690046  -4582.296138335233 9353.227793565928 174.7120423771314  10526.63530827951 -4764.509931203664 147.6215707391381  -926.4875781289556 -10272.33407272364 -56.17643064236032  -9435.61220951478 3429.584456660322 -172.8640432669481  -7149.506480888085 3278.774062888304 -115.6338704027166  -3712.719763969821 9137.320004932164 221.6748273546359  -8607.276711662395 -7160.397365831808 -36.59712784104669  -5.395083064505212 -10.70771809779302 1.308278115991611  -5354.949419679618 -5489.506415031198 0.7430988387091528  8030.746592469539 2096.576745053262 -5.193433453711668  -3226.067102267695 6024.59433242864 26.09051660174941  5996.505541532666 -4298.918898549207 30.25973417650644  -4330.902480045541 755.4629870510385 -27.99352876975327  -8198.946893193002 1187.028987478242 -1.175665492613807  1672.712160096367 6718.292147027262 -25.89952161577772  5774.538379414384 -3476.059122031867 -25.50264723057536  -4775.391424680423 -666.3815783452214 32.61066289076414  4379.440096206336 5076.117324143234 34.3735386171267  -1681.691095593857 -5847.221485172064 -42.54069464769017  1269.350551095924 -7806.393542883961 -0.4804121121845253  3679.014976749328 2385.495377909274 -34.85413948428859  -14
[...]
<PointData  Vectors="Coriolis"> 
<DataArray  type="Float64"  Name="Coriolis"  NumberOfComponents="3" format="ascii">-2.0859870636703169e-09 1.1949209892687178e-08 0.0000000000000000e+00  -1.2553931581441530e-08 3.7989487762489604e-09 0.0000000000000000e+00  -6.4406138961785370e-08 -1.8658130795548274e-06 0.0000000000000000e+00  -5.7439672949868760e-08 -2.8534456234250450e-06 0.0000000000000000e+00  -5.8798089086516356e-08 -3.0233554735356296e-06 0.0000000000000000e+00  -6.2171636202706087e-08 -2.9892167463184078e-06 0.0000000000000000e+00  -6.7088636531363411e-08 -2.9674863257439518e-06 0.0000000000000000e+00  -6.4244089720970458e-08 -2.9909084685379903e-06 0.0000000000000000e+00  -6.2776683349138612e-08 -3.0250142253559712e-06 0.0000000000000000e+00  -7.3808981557199415e-08 -2.8608166566869434e-06 0.0000000000000000e+00  -4.8288132255285584e-08 -1.8722336667532844e-06 0.0000000000000000e+00  -1.2455367604486661e-06 -1.9703923543075050e-06 0.0000000000000000e+00  9.6098410921033061e-07 -2.1714544503655337e-06 0.0000000000000000e+00  -6.0695770498082991e-07 -2.9376375407932572e-06 0.0000000000000000e+00  -9.0204047020056412e-07 -2.7403618498606071e-06 0.0000000000000000e+00  5.5089473235340877e-07 -2.8809000891127016e-06 0.0000000000000000e+00  5.4749624795630516e-07 -2.9092295161154027e-06 0.0000000000000000e+00  1.0201041149008338e-06 -2.2776310647513729e-06 0.0000000000000000e+00  -1.3343850395945421e-06 -8.7928140523350007e-07 0.0000000000000000e+00  -8.4676175382588778e-07 -2.7563587817636441e-06 0.0000000000000000e+00  -1.7014553025871562e-06 -1.9190923792620897e-06 0.0000000000000000e+00  -1.3292658347779482e-06 -2.4138346534233762e-06 0.0000000000000000e+00  -1.8443236959649951e-06 -1.6024662539120222e-06 0.0000000000000000e+00  -1.5358012167683249e-06 -2.0612276465705855e-06 0.0000000000000000e+00  -1.9250786914754336e-06 -1.2758040969879148e-06 0.0000000000000000e+00  -1.6866592696262871e-06 -1.7867461576174538e-06 0.0000000000000000e+00  -2.0263350845766606e-06 -9.2090706400256688e-07 0.0000000000000000e+00  -1.8825792291673669e-06 -1.4438247720028191e-06 0.0000000000000000e+00  -2.1492114551468859e-06 -4.9841952682847664e-07 0.0000000000000000e+00  -2.0912688832371630e-06 -1.0699777540366955e-06 0.0000000000000000e+00  -2.2197556177757519e-06 7.0780279154985703e-08 0.0000000000000000e+00  -1.4595848141397398e-06 -2.2055394851553411e-06 0.0000000000000000e+00  7.2229397002889726e-07 -2.8290237813450936e-06 0.0000000000000000e+00  1.2017471657997780e-06 -2.4465726592264001e-06 0.0000000000000000e+00  9.5899345232920699e-07 -2.5818108897797548e-06 0.0000000000000000e+00  -2.1685479652110246e-06 -4.8368684692611867e-07 0.0000000000000000e+00  -1.7904732575085585e-06 -1.7477737335385795e-06 0.0000000000000000e+00  1.5245552927606210e-06 -2.0631698744846610e-06 0.0000000000000000e+00  1.7861093315797331e-06 -1.6464887674812598e-06 0.0000000000000000e+00  -5.9908730373656334e-07 -2.9373842095076720e-06 0.0000000000000000e+00  -1.1702120828644931e-06 -2.5300227104994089e-06 0.0000000000000000e+00  -6.7293396100599837e-07 -2.9419522833848064e-06 0.0000000000000000e+00  1.3174026732490244e-06 -9.1448849790781347e-07 0.0000000000000000e+00  7.3437831329952865e-07 -2.8436463178822792e-06 0.0000000000000000e+00  1.2089056641760818e-06 -2.4307854168453496e-06 0.0000000000000000e+00  -2.1445490188221841e-06 -6.4482259885665204e-07 0.0000000000000000e+00  -2.1113425499356695e-06 5.1590618271525599e-07 0.0000000000000000e+00  -2.0307976269754607e-06 -9.5260770156965293e-07 0.0000000000000000e+00  9.8204357313274305e-07 -2.5652314237107019e-06 0.0000000000000000e+00  1.5186224030918093e-06 -1.9860525160022252e-06 0.0000000000000000e+00  1.8005517614369443e-06 -1.6551976753477718e-06 0.0000000000000000e+00  1.9470471295371509e-06 -1.1500285503160210e-06 0.0000000000000000e+00  2.1153248543386807e-06 -5.8399338940148259e-07 0.0000000000000000e+00  2.0931662627226300e-06 -1.4875815526717695e-07 0.0000000000000000e+00  2.1481227461211816e-06 5.5866677286229744e-07 0.0000000000000000e+00  2.0576190051233651e-06 8.2171778667976389e-07 0.0000000000000000e+00  1.9192201649117586e-06 1.5078345948569730e-06 0.0000000000000000e+00  2.0862279707534011e-06 1.6315489616330274e-07 0.0000000000000000e+00  -1.9642432857248497e-06 1.2185192867892688e-06 0.0000000000000000e+00  -1.8145005249738879e-06 1.4298978252330000e-06 0.0000000000000000e+00  1.8315400227002856e-06 1.6391627397935991e-06 0.0000000000000000e+00  1.5488430663147283e-06 2.2062302296055600e-06 0.0000000000000000e+00  1.4738282056176741e-06 2.2551781334872851e-06 0.0000000000000000e+00  9.8909064680018899e-07 2.6895565511796439e-06 0.0000000000000000e+00  9.3669033035298535e-07 2.6977833516513388e-06 0.0000000000000000e+00  1.0824664268831974e-06 2.6606727708284519e-06 0.0000000000000000e+00  1.4610983305873078e-06 2.3049291346377588e-06 0.0000000000000000e+00  4.5697670109261279e-07 2.8952296726172866e-06 0.0000000000000000e+00  8.7824657059334411e-07 2.7616405186030787e-06 0.0000000000000000e+00  3.7034759942970686e-07 2.9609555575261012e-06 0.0000000000000000e+00  -2.7031488117109770e-07 2.9618231314462283e-06 0.0000000000000000e+00  1.4996875093985092e-06 2.3350804302299058e-06 0.0000000000000000e+00  -1.7547059429148655e-06 8.3742492092555978e-07 0.0000000000000000e+00  -1.5237036172318492e-06 2.0964806282866251e-06 0.0000000000000000e+00  -4.8429320020882048e-07 2.9407669849595083e-06 0.0000000000000000e+00  -9.6686551068566305e-07 2.7265356018026386e-06 0.0000000000000000e+00  2.9788149135218611e-07 2.9118227778885098e-06 0.0000000000000000e+00  2.0106615526113570e-06 1.3282444144123498e-06 0.0000000000000000e+00  7.3714270990159270e-07 2.8136359867279223e-06 0.0000000000000000e+00  2.0668911474417000e-06 -9.4350006540801087e-07 0.0000000000000000e+00  -6.7783651272425138e-07 2.8304555737059850e-06 0.0000000000000000e+00  2.7734649163874978e-07 2.7868361878872211e-06 0.0000000000000000e+00  1.5100587605279284e-06 2.1052190073756661e-06 0.0000000000000000e+00  -1.3109152657755411e-06 2.3671191533388713e-06 0.0000000000000000e+00  -1.5252300307886621e-06 2.0607761384582947e-06 0.0000000000000000e+00  1.8820181758581089e-06 1.6658813755712844e-06 0.0000000000000000e+00  -2.0015837925991908e-06 8.0852574547166423e-07 0.0000000000000000e+00  3.0303698221256816e-07 2.5248951231106834e-06 0.0000000000000000e+00  -2.5656811225576817e-07 2.9895050544102170e-06 0.0000000000000000e+00  -1.8926957541326074e-06 1.4128955662873083e-06 0.0000000000000000e+00  -1.9404586639961175e-06 1.1769336279546294e-06 0.0000000000000000e+00  -1.6299486096426438e-06 1.5622642369084140e-06 0.0000000000000000e+00  1.7414064206633676e-06 -1.6012758931567535e-06 0.0000000000000000e+00  -1.4331210745990792e-06 2.1482619156352182e-06 0.0000000000000000e+00  -1.0130924792490984e-06 2.6810561066969542e-06 0.0000000000000000e+00  2.0995047371467816e-06 -6.5245340459432306e-07 0.0000000000000000e+00  2.1785593984631713e-06 2.5038074824130482e-07 0.0000000000000000e+00  2.1002451070468711e-06 7.9542137904124152e-08 0.0000000000000000e+00  1.2005576250347617e-06 1.5182710884454393e-06 0.0000000000000000e+00  -1.6294078548851710e-06 1.9436628393348013e-06 0.0000000000000000e+00  2.0503952435784491e-06 -1.0215416639451144e-06 0.0000000000000000e+00  -1.6460817013361999e-06 1.7745110357369462e-06 0.0000000000000000e+00  2.0159506052039843e-06 3.4188740373019211e-07 0.0000000000000000e+00  1.1158124243522119e-06 9.6418459218126000e-07 0.0000000000000000e+00  2.1297721875327938e-06 3.7381781751216426e-07 0.0000000000000000e+00  -8.0485851303413297e-07 1.3337375041779323e-06 0.0000000000000000e+00  -2.2206651666059193e-06 2.9126533242709984e-07 0.0000000000000000e+00  -9.4779406940232883e-07 2.3422780193941731e-06 0.0000000000000000e+00  -1.0370729595265134e-06 2.7053225637280180e-06 0.0000000000000000e+00  -4.1892248088120627e-07 2.9327400764484946e-06 0.0000000000000000e+00  -4.8834003622171936e-07 2.8765864703103749e-06 0.0000000000000000e+00  -2.7279908657965423e-08 2.9268746500045626e-06 0.0000000000000000e+00  1.6567178873860837e-06 1.8206184414826456e-06 0.0000000000000000e+00  1.5001517441180422e-06 2.3082637712908537e-06 0.0000000000000000e+00  -2.1471381899085632e-06 3.1485692946436875e-07 0.0000000000000000e+00  2.1737362808342783e-06 1.2451627969681764e-07 0.0000000000000000e+00  1.8797047407673234e-06 -1.2996268550061216e-06 0.0000000000000000e+00  -6.4597888381220845e-07 -2.9432466336268159e-06 0.0000000000000000e+00  -1.4061765081723245e-06 -2.4282959965242002e-07 0.0000000000000000e+00  -2.1175343612416798e-06 -4.4186709674539235e-07 0.0000000000000000e+00  2.0474850479553494e-06 1.2710848103102355e-06 0.0000000000000000e+00  4.4313832443738520e-07 -2.8917023406165864e-06 0.0000000000000000e+00  1.4860325675122545e-06 -2.0278891932590432e-06 0.0000000000000000e+00  1.2556170434131227e-06 -2.2741491240587916e-06 0.0000000000000000e+00  -1.2224042501955012e-06 2.4451788102506492e-06 0.0000000000000000e+00  2.0147590309233430e-06 1.0178185314325207e-06 0.0000000000000000e+00  1.8092946312596104e-06 1.7028457965828604e-06 0.0000000000000000e+00  -2.1561542766316239e-06 2.9352509129454558e-07 0.0000000000000000e+00  -5.6662727401088612e-07 1.4371310800218978e-06 0.0000000000000000e+00  -6.7940151706476224e-07 2.5454479502125937e-06 0.0000000000000000e+00  2.0266456608946411e-06 -7.3387042750988901e-07 0.0000000000000000e+00  -2.1228970422601341e-06 -3.6591615634493343e-08 0.0000000000000000e+00  -1.7009190207078541e-06 -1.9371826512032855e-06 0.0000000000000000e+00  4.5132356585617255e-07 -2.8820148796015806e-06 0.0000000000000000e+00  -1.0915003657226699e-06 -2.1631018522004745e-06 0.0000000000000000e+00  -1.0463879819134714e-06 2.6288830696193685e-06 0.0000000000000000e+00  -2.0912516907303212e-06 8.2679670029666298e-07 0.0000000000000000e+00  1.4878176052104720e-06 -2.1375480281638687e-06 0.0000000000000000e+00  2.4197622537577591e-07 2.9648315034651587e-06 0.0000000000000000e+00  -2.1666225917808314e-06 -8.3167184977796373e-07 0.0000000000000000e+00  1.8364702309386344e-06 -1.2607902117840485e-06 0.0000000000000000e+00  2.0677066643819913e-06 -4.5832324008210687e-07 0.0000000000000000e+00  1.6502675096375607e-06 2.1421072794755722e-06 0.0000000000000000e+00  -1.0854625462322881e-06 -2.6187369186454403e-06 0.0000000000000000e+00  1.2964209683179169e-06 6.4404589295156841e-08 0.0000000000000000e+00  -1.1911429532659016e-06 -2.5597355949419879e-06 0.0000000000000000e+00  5.6010383540118602e-07 2.8404508983702158e-06 0.0000000000000000e+00  -1.7216490786457319e-06 1.5945406525663523e-06 0.0000000000000000e+00  -1.9478474995000555e-06 1.0112907170808947e-06 0.0000000000000000e+00  7.9525902647708332e-07 -2.6939846228142717e-06 0.0000000000000000e+00  1.9173278671249533e-06 1.0938687950079094e-06 0.0000000000000000e+00  1.7060653158126219e-06 -1.4485914380242011e-06 0.0000000000000000e+00  4.0329275320381507e-07 1.9685006266563872e-06 0.0000000000000000e+00  2.0098848958515802e-06 1.1804644353081739e-06 0.0000000000000000e+00  -1.0232039098599171e-06 -2.6788696441132139e-06 0.0000000000000000e+00  -2.1137506178893057e-06 2.4974045451717245e-07 0.0000000000000000e+00  9.3700308612676119e-07 2.7522257262079102e-06 0.0000000000000000e+00  9.8877575206207405e-07 2.2314031595181627e-06 0.0000000000000000e+00  2.0912941000911119e-06 1.0010417206209814e-06 0.0000000000000000e+00  -1.3965889064751326e-06 2.1770116782668894e-06 0.0000000000000000e+00  -1.0145660073776238e-08 3.7066040999413163e-10 0.0000000000000000e+00  -1.5350421999361952e-06 1.7165465126225192e-06 0.0000000000000000e+00  5.8079211208606944e-07 -2.5719858369622260e-06 0.0000000000000000e+00  1.7667162790800114e-06 1.0239161046642270e-06 0.0000000000000000e+00  -1.2695662546045334e-06 -1.8851683844631143e-06 0.0000000000000000e+00  2.5935152274820894e-07 1.4677653777663709e-06 0.0000000000000000e+00  3.6282549746940099e-07 2.5983379876804970e-06 0.0000000000000000e+00  1.9358794370479330e-06 -5.5246970937708967e-07 0.0000000000000000e+00  -1.0526320685894483e-06 -1.8605134948041331e-06 0.0000000000000000e+00  -2.1002605624477581e-07 1.6171368323978774e-06 0.0000000000000000e+00  1.4900444819890751e-06 -1.4459053292218466e-06 0.0000000000000000e+00  -1.7191574198863294e-06 5.6999871628325062e-07 0.0000000000000000e+00  -2.1440473864282072e-06 -3.8265432692895742e-07 0.0000000000000000e+00  7.4909267176868965e-07 -1.2579139633477549e-06 0.0000000000000000e+00  -1.8590823195020869e-06 4.7771838024028034e-07 0.0000000000000000e+00  -3.2759735209266506e-07 -1.1305785656017763e-06 0.0000000000000000e+00  1.7320319041613098e-06 1.6629864880332195e-06 0.0000000000000000e+00  -7.9003566677086727e-07 2.5577216026017905e-06 0.0000000000000000e+00  2.9241046350991159e-08 -2.6628036709351228e-06 0.0000000000000000e+00  1.3393100376929938e-06 4.0728709348057175e-07 0.0000000000000000e+00  2.1019038250465901e-06 -5.0316953426559377e-07 0.0000000000000000e+00  1.3031617410220848e-06 -2.1473400751346414e-06 0.0000000000000000e+00  1.6243422336901373e-06 -1.9287380849547899e-06 0.0000000000000000e+00  9.9500392151578159e-07 2.4275260199718937e-06 0.0000000000000000e+00  -6.9698504898511417e-07 -2.7079550099286513e-06 0.0000000000000000e+00  1.7584215167814015e-06 6.4585040013465420e-07 0.0000000000000000e+00  -7.1078658788221402e-07 2.7443200887537650e-06 0.0000000000000000e+00  7.4941040134373434e-08 -2.8259274788337793e-06 0.0000000000000000e+00  -1.7126380350071423e-06 -1.8127656709186962e-06 0.0000000000000000e+00  7.8894116139681175e-07 2.6270642581931722e-06 0.0000000000000000e+00  -1.0344497347618030e-06 -7.6379770419869607e-07 0.0000000000000000e+00  -2.0523098216693180e-06 9.3625889424188403e-07 0.0000000000000000e+00  -2.0792594245627957e-06 8.7568270551756072e-07 0.0000000000000000e+00  -2.0832900036767055e-06 -1.0070481412730109e-06 0.0000000000000000e+00  1.6581295735351017e-06 2.0635138142973379e-06 0.0000000000000000e+00  -2.0840932081849823e-06 -8.8234003363532962e-07 0.0000000000000000e+00  2.1525300527592184e-06 5.7628351201974349e-07 0.0000000000000000e+00  -1.0970564649961820e-06 1.8602527614176964e-06 0.0000000000000000e+00  1.0190302869733108e-06 -2.5639178047212400e-06 0.0000000000000000e+00  1.4567158696707582e-06 -4.4706011186519213e-07 0.0000000000000000e+00  7.9747519376261319e-07 -1.3402100178035614e-06 0.0000000000000000e+00  </DataArray> 
</PointData> 
</Piece>
</UnstructuredGrid>
</VTKFile>