<?xml version="1.0"?>
<VTKFile type="UnstructuredGrid"  version="0.1"  >
<UnstructuredGrid>
<Piece  NumberOfPoints="201" NumberOfCells="657">
<Points>
<DataArray  type="Float64"  NumberOfComponents="3"  format="ascii">-1.844290970491304 0.3933692813721942 683.4828819943509  -0.8101217343529389 -0.3209572350173237 -684.2056998214188  1878.95910284395 0.4080500540212351 -662.2615512870517  3503.733836001791 0.161324879503162 -587.5631919749851  4709.347411432089 -0.6018619479889729 -450.7786298768826  5440.965952231146 -0.4414409476520845 -244.575882636483  5686.27991622382 -0.09592190311958977 0.3922817473596442  5441.371312930348 -0.1959726678468005 244.9619309286475  4709.323631080963 -0.429714155602568 450.8219178025411  3503.542261766275 0.45681715812929 588.0327237020462  1879.296653381767 0.2971598762209535 662.2532331185682  2350.509629650338 -1241.319903701862 -614.9384563150566  2344.744351018197 963.5522596375492 628.0583453991878  5415.878769051535 -1158.087931131814 -117.5687846500055  4015.817088121211 -1231.079255037739 497.4981644462993  4975.840133617297 1160.999991025094 327.5694662742036  4957.817707704091 1161.35897648035 -332.3824396294114  2620.10821000967 1114.119868477583 -610.2187309572848  915.7421825564996 -1099.386948089321 655.2829996117973  3995.152978348257 -1134.094390873339 -506.5567278613015  2782.762595725908 -2194.705306636426 -508.5444562260615  4057.619754064852 -2188.80952292757 -365.0711599345045  2768.996955252431 -3086.340769421387 -340.8488567392603  3858.213891217486 -2935.853400405098 -172.9770762442643  2411.629501183163 -3670.931579519157 -142.7515965702081  3429.461477850207 -3327.908071484731 37.19745467026874  1796.114938125181 -3906.313304266578 64.71386844280798  2632.359973641453 -3410.961172728983 247.728673362911  947.8141744525949 -3782.325847646554 257.1989181595754  1717.305937052714 -3087.319233453541 423.5685745509589  -66.43294339901733 -3300.510887309988 420.150168350346  4041.028066574009 -2720.821860824118 215.7841790203159  3997.157078854636 1134.670245550361 507.1096629098908  3978.638069413932 2200.853453523881 377.2058211558059  4751.14382328291 2137.2152081866 176.142948985616  657.0370290117995 -2445.551606284523 554.3351599163077  2399.436931124617 -2164.370049290655 534.3179873149041  2789.603472075313 2069.358988833721 523.4370939161086  2626.574463494103 3032.673233596397 369.9400197176562  5427.146105763801 -1129.913302360687 117.8918982312069  4766.385376932252 -2310.276149788264 13.76779785871526  4988.713466390027 -1162.657583984379 -323.5441924284856  914.5008705904889 1100.111270182101 -655.0951386321976  3960.668389902165 1104.442308323363 -512.7762952733625  3949.8674668106 2188.521259864949 -384.0335947687622  1180.349617205767 -3670.78611651553 -289.5723802477546  -825.731814954485 -3826.388083378589 243.3639883419531  1204.752545397982 -2223.005904046699 -569.5608144906299  4719.876794547989 2161.14917935348 -181.3687221347417  3523.579516356719 3073.308880942506 -211.3763583110161  2544.053675162644 2953.261586449221 -396.4603166268839  1973.077909941074 3671.974711849534 -220.9468776610544  884.9861020143239 3422.082821139304 -378.6803414451134  252.5359830065597 3951.630708295382 -198.0983312263455  -905.1949641267082 3522.737088655161 -349.9269041781815  -1469.332711673296 3896.169362524247 -150.7746147451422  -2612.636614622202 3349.531230866842 -276.0621261422781  -283.7058048918632 4113.419237560996 13.43436346138597  -1843.893174545037 -3193.717351010527 393.0255129094758  -2499.545641304351 -3559.183600382196 198.7956526337402  -3037.266991472013 3499.967079650645 -75.6665901055806  -4036.860889440911 2767.057362196402 -196.429586349958  -4279.433944213752 2772.11071097472 17.44675932321566  -5046.252335974352 1849.341179092991 -126.7634919534223  -5114.332406767617 1757.371748176135 117.5102885210916  -4538.108444168865 1735.641904159602 -352.1497840235944  -4148.507779233272 2557.455812186597 246.7599428763975  -5365.933453159766 769.7189964687751 -231.8813089688342  -4781.657510786926 1434.722021401599 341.043791668516  -4652.822943077154 487.0620796224993 -451.4421933542946  -5160.324952198485 -556.4016383026544 -329.8874041309871  -3596.740381704925 2123.269131531899 444.4201366828007  -834.4006508155339 -1691.220490885982 621.3179483764984  -3456.161294018841 -2772.720978028673 331.4516811466874  -4213.342533944155 -741.5326623545245 -505.4446811739612  -4470.534818220111 -1751.180494968004 -364.5675342166713  -5482.422449667715 489.348502503306 200.777707015477  -1953.23371967652 2750.104966395018 -475.8149472903007  -4021.605856484055 910.4065782922195 519.4554283370106  1262.80694110583 2764.922482863142 499.2861557042258  -5262.34068089163 -1455.300013998827 -134.5481801890543  -3467.40586693594 293.0740346298704 -589.1245703697812  -2697.225082977745 1594.143422879441 574.2794836740698  -3283.6766904531 -1849.643867838655 -511.8155409448408  -3364.579706482621 -2765.792030543307 -348.2051167826893  -2828.01389688151 3098.440913493486 330.2896309511684  -1418.685140140726 -3991.007251814463 46.62287291835237  -2871.736473254169 269.7336506954571 623.9430964822863  -4152.134802699778 -395.5564111179438 524.5216550263692  -1975.999490580671 -2733.262682977448 -477.7467505825501  -1936.013247512523 -3495.236656273991 -300.0047805405258  -1747.32872874255 -1720.337935080548 -602.8362183122268  2860.393907938629 3595.531782691939 -20.59871931997001  -3863.385690279823 -2993.930355041729 133.7070481607141  -4683.877193827545 -2043.656638028707 239.9440013923995  1024.879905212245 3570.4864227222 331.7391676892227  -378.1146242660197 3208.391141786848 436.9891464890079  -133.401013997822 2409.392354143992 562.0582869232896  -1641.565160882179 1019.83924491819 647.4748439066694  -2653.77243758713 -2241.687884256909 511.2929234250079  1384.907468849161 2704.924498119344 -504.7334628000058  -3173.702999051977 -3344.378216669978 -162.6810443077505  -442.6112760506842 2062.916626283453 -595.5924852907721  -999.5655292603104 884.112610042338 -662.9708460830906  -633.8146613650986 3843.637279853008 243.1021344371822  -1287.287428262243 -626.1316950233542 665.8462393086403  -417.1433100987467 -3362.235917616626 -403.0193875512629  -2733.307624747235 -1018.115393974902 609.6714886020013  -4091.211806751968 -1672.473320022335 441.7686384822439  -5041.235076153783 -816.8948847963792 345.8023318021006  -5448.823734565519 -1069.435783141155 111.5558706295605  -5660.837860646157 -139.3477340600646 -70.09011949754878  -2289.908669139864 1769.527378589729 -580.4929834538511  -3407.262640033792 1983.512430750867 -484.5482749488677  -485.2170185068852 -3872.692945065764 -234.5233669420893  -199.3371413968327 3026.367889093328 -473.6667502371181  2257.87865037053 3648.653196816062 190.7210221111242  4960.01337689168 -1111.221621601392 338.0299628852626  300.9659822793186 -1152.736741302681 -656.8892178333065  890.2621123446796 -4020.972362533189 -110.9287641859819  -1787.127681094672 2628.657473329685 501.9417705056518  5437.924908831533 1086.22575647913 -120.1689371887362  3624.959288354603 3049.479206236139 193.536136649144  4261.863143497412 2788.175736509861 -8.640018123609103  -4340.358015788806 -2521.580236410798 -193.3263815335737  -1867.174176691545 3896.303358993538 56.70444881107607  -3142.91586989127 3394.362806837913 136.0386367346797  -321.8235315413096 -2498.245000599802 -550.2873851778256  -1419.516173817733 -455.5688450629899 -668.1741355458702  -2943.426570962143 -741.1470058686519 -610.6297205065239  1298.464127588774 4012.272432679263 -37.07147164873231  149.7733716337514 -4091.862401618746 79.93518906400237  3189.380572714454 -2636.492989209715 400.6353313476599  5445.523386948174 1100.049688887586 106.9341928002918  2620.081893694383 -1106.057110914258 611.0267318293176  -4793.31303650768 -2277.834463284167 19.17569406332319  -1054.392218507769 -2704.117133120126 512.9269066776471  2869.012684249809 2007.1800729527 -524.5152870389877  -4953.621063267403 340.4971459035056 394.9775514259763  1304.957930488618 -3059.965246931846 -446.1130487461775  1463.712673480548 1966.902423187035 588.9510937526519  801.8581151555427 3986.170695471768 151.3272849984739  -3575.165212917951 2630.049278549789 -350.0918704112672  4765.296212909535 -2057.013716882157 -201.9442400759662  -93.5227644650637 1059.065155017982 661.362523768242  4356.877524098211 -1986.953225932339 345.7178744137975  -5514.668932427593 1030.501599872015 -18.45729925080027  -2913.390411929277 -3576.656257033691 6.749027270025564  -1779.914621047782 -3868.61771537403 -120.7661784938942  5089.217269874687 1897.334987425972 -5.439724421584025  -1334.15919436838 2017.860325149718 587.9031454925365  1662.881219928949 1834.214487631086 -595.6345160828866  -2045.616580060805 301.2247725336126 -656.5235008786402  -2077.217105539144 3626.332610338762 231.2725609232043  4849.924175685291 -1915.205103193559 213.6449871233404  -387.0107142282814 -4089.067591799171 -72.30282282525519  -3781.168418691593 1088.831033884282 -532.6025616557531  -2630.330298394435 911.8411451691679 -619.6389971500769  -1611.156500583504 3317.370228788964 375.927012456209  -3975.691243533801 -2995.288997289474 -42.56167770108713  -0.006217583679383101 -0.09308566909243741 -0.09735638124135948  -1917.188852453967 -1606.447920053206 18.90445479931887  2900.034864526524 631.012469165482 -2.965931152941272  -1159.978263946652 1682.069035647813 152.968276114879  2168.358096911798 -1198.35602342818 141.034651706861  -1433.567715623967 174.6309489532753 -307.7982668051498  -2984.230002206234 321.9892403313935 -0.03161660497091879  572.0696864420394 1898.478858355271 -132.210616877972  2030.275119547389 -940.9405741216475 -209.1329788329671  -1590.729832844532 -178.1658081670058 299.1565692097512  1511.694416494818 1417.121166831908 242.229863539694  -558.2245707741106 -1611.791534396985 -261.0062915983883  492.3477353208813 -2330.941207312514 1.171894768601366  1214.471948884447 618.732561310697 -341.
[...]
<PointData  Vectors="Coriolis"> 
<DataArray  type="Float64"  Name="Coriolis"  NumberOfComponents="3" format="ascii">1.1603201206201047e-09 0.0000000000000000e+00 -2.8399848349029560e-11  -1.1512863101284454e-09 0.0000000000000000e+00 -1.7208453184670602e-11  -9.5828800401991889e-10 0.0000000000000000e+00 5.6621454037964965e-09  -5.3538392654588835e-10 0.0000000000000000e+00 9.6059024982166338e-09  -1.2112404922753895e-10 0.0000000000000000e+00 1.1485537396191959e-08  2.0465068488953470e-11 0.0000000000000000e+00 1.2128876527363238e-08  -5.1859383106841045e-12 0.0000000000000000e+00 1.2266171695066568e-08  -2.6992975707113764e-11 0.0000000000000000e+00 1.2132728307950385e-08  1.1855487603944518e-10 0.0000000000000000e+00 1.1484668921331104e-08  5.2953663970894310e-10 0.0000000000000000e+00 9.6053807470561854e-09  9.5607928803822001e-10 0.0000000000000000e+00 5.6636391370411299e-09  -7.7397673889681073e-10 0.0000000000000000e+00 6.7434614358600549e-09  8.1343369039407262e-10 0.0000000000000000e+00 6.8257896159861886e-09  1.0624466911449087e-11 0.0000000000000000e+00 1.1810975538778771e-08  2.9885300813385120e-10 0.0000000000000000e+00 1.0222075188177612e-08  3.2469154610160959e-11 0.0000000000000000e+00 1.1449124721917057e-08  -4.4708504220317426e-11 0.0000000000000000e+00 1.1441830601017027e-08  -7.2389885585413545e-10 0.0000000000000000e+00 7.4397537873144450e-09  1.0485957404809825e-09 0.0000000000000000e+00 2.7820829399207634e-09  -3.2292691666916988e-10 0.0000000000000000e+00 1.0225170690434745e-08  -5.1835300972956420e-10 0.0000000000000000e+00 7.3203182789747994e-09  -1.9062091527339516e-10 0.0000000000000000e+00 9.6628102003071695e-09  -3.0616727164723763e-10 0.0000000000000000e+00 6.6547566435516830e-09  -9.2275817343577493e-11 0.0000000000000000e+00 8.6375575812080932e-09  -1.3057830589816398e-10 0.0000000000000000e+00 5.4839203612784479e-09  1.9237520961884189e-11 0.0000000000000000e+00 7.5867192950297168e-09  6.4280662117506839e-11 0.0000000000000000e+00 4.0493570826142352e-09  2.1446982884892493e-10 0.0000000000000000e+00 6.1167754762619817e-09  3.0516646764544738e-10 0.0000000000000000e+00 2.2448419818912906e-09  5.0506911852116133e-10 0.0000000000000000e+00 4.3749054622665921e-09  5.6074473347199782e-10 0.0000000000000000e+00 -1.6840891504931006e-10  9.8312939123858772e-11 0.0000000000000000e+00 9.1344174975003032e-09  3.1318316471229514e-10 0.0000000000000000e+00 1.0251470356523003e-08  1.9861994472755873e-10 0.0000000000000000e+00 9.5293883602034261e-09  2.8093982911962097e-11 0.0000000000000000e+00 1.0517473062720503e-08  8.1186549033158153e-10 0.0000000000000000e+00 1.8364991676827481e-09  6.2461348901584792e-10 0.0000000000000000e+00 6.5182794266629558e-09  5.4061838018733889e-10 0.0000000000000000e+00 7.4120596118933456e-09  3.5648653735884200e-10 0.0000000000000000e+00 6.4094792044969164e-09  -1.5174840054010642e-11 0.0000000000000000e+00 1.1840222016492550e-08  -3.1596122881847874e-12 0.0000000000000000e+00 1.0407361264813837e-08  -4.3816463005635295e-11 0.0000000000000000e+00 1.1501957308383574e-08  -1.0516158268322618e-09 0.0000000000000000e+00 2.7577649528986929e-09  -3.3444035341427457e-10 0.0000000000000000e+00 1.0200029297172165e-08  -2.1298008318135069e-10 0.0000000000000000e+00 9.4796419437939322e-09  -3.4420981701213136e-10 0.0000000000000000e+00 2.8267209786924919e-09  2.9260345143652674e-10 0.0000000000000000e+00 -1.9873002352646691e-09  -8.2650427370583468e-10 0.0000000000000000e+00 3.4187049406572511e-09  -3.8604700782602014e-11 0.0000000000000000e+00 1.0466786990400558e-08  -1.3197068876066686e-10 0.0000000000000000e+00 8.0019784527161104e-09  -4.0060434141313627e-10 0.0000000000000000e+00 6.3143587420462040e-09  -2.2762962780864147e-10 0.0000000000000000e+00 4.5963834207759357e-09  -4.8044313754821927e-10 0.0000000000000000e+00 2.2172262182888039e-09  -2.3687681592199541e-10 0.0000000000000000e+00 5.6792580035071882e-10  -4.3915823839817465e-10 0.0000000000000000e+00 -2.2549614441922548e-09  -1.6124575580947215e-10 0.0000000000000000e+00 -3.4022340154074894e-09  -2.4364235114539831e-10 0.0000000000000000e+00 -6.1570131402529232e-09  1.4769230407509833e-11 0.0000000000000000e+00 -6.7513134750162322e-10  4.4830792857740243e-10 0.0000000000000000e+00 -4.6296455795696103e-09  1.7663011867722747e-10 0.0000000000000000e+00 -5.7417624624515446e-09  -5.4286199578156090e-11 0.0000000000000000e+00 -6.8034392570769313e-09  -8.1795824433610104e-11 0.0000000000000000e+00 -9.0655383172951621e-09  9.9301238334216545e-12 0.0000000000000000e+00 -9.3512718575579677e-09  -1.3881565078650875e-12 0.0000000000000000e+00 -1.1058676875245609e-08  1.1679146442306466e-11 0.0000000000000000e+00 -1.1173760495409681e-08  -1.0436118753682412e-10 0.0000000000000000e+00 -1.0609901854316347e-08  1.0017031184241371e-10 0.0000000000000000e+00 -9.4173844139576581e-09  2.0217672974634959e-11 0.0000000000000000e+00 -1.1907632059043681e-08  7.7353620485751106e-11 0.0000000000000000e+00 -1.1086233073370143e-08  -1.2842177292093290e-10 0.0000000000000000e+00 -1.1346648086895789e-08  -5.5303751017199938e-12 0.0000000000000000e+00 -1.1809667242320945e-08  3.2260172441563431e-10 0.0000000000000000e+00 -8.9809933715844276e-09  9.8443563924305507e-10 0.0000000000000000e+00 -2.4914565409935571e-09  2.3728026409246202e-10 0.0000000000000000e+00 -8.1907167737900654e-09  -2.5872460800969444e-10 0.0000000000000000e+00 -1.0699881005867219e-08  -1.1995942483233547e-10 0.0000000000000000e+00 -1.0512729672652570e-08  -2.3495825378864673e-11 0.0000000000000000e+00 -1.2063088057111470e-08  -5.6273590656521310e-10 0.0000000000000000e+00 -5.1216441539543644e-09  3.1170941618893537e-10 0.0000000000000000e+00 -1.0352347566778574e-08  6.6629576494622139e-10 0.0000000000000000e+00 3.3952043368735500e-09  1.4746492721608031e-11 0.0000000000000000e+00 -1.1461546781593076e-08  -5.2742180177472457e-10 0.0000000000000000e+00 -9.4868009102086332e-09  6.5289169708238822e-10 0.0000000000000000e+00 -7.4450325091089256e-09  -4.4311140672595002e-10 0.0000000000000000e+00 -8.5487504847044586e-09  -2.5144131411621054e-10 0.0000000000000000e+00 -8.0375451544809006e-09  2.8959281618474769e-10 0.0000000000000000e+00 -6.7619747754961705e-09  5.0689357969346876e-11 0.0000000000000000e+00 -3.2264707638154289e-09  7.2208484798511350e-10 0.0000000000000000e+00 -8.2099674830004474e-09  3.0306602034033154e-10 0.0000000000000000e+00 -1.0696124174757232e-08  -5.6107291785064520e-10 0.0000000000000000e+00 -5.1830889896848686e-09  -3.1170286141131642e-10 0.0000000000000000e+00 -4.6339454793919311e-09  -8.3319913432772493e-10 0.0000000000000000e+00 -5.0416597304924917e-09  -2.0609198111388858e-11 0.0000000000000000e+00 6.4146289225596661e-09  7.2910740274623353e-11 0.0000000000000000e+00 -8.6109317888775739e-09  5.0043783806105616e-11 0.0000000000000000e+00 -1.0532512551933535e-08  4.0458291563091937e-10 0.0000000000000000e+00 2.5031130062691160e-09  5.9853366713875529e-10 0.0000000000000000e+00 -1.0103788559280856e-09  8.4782337857810800e-10 0.0000000000000000e+00 -3.7837307927190692e-10  9.4400638268241203e-10 0.0000000000000000e+00 -4.9023678947612100e-09  5.3842289215126841e-10 0.0000000000000000e+00 -7.0050037424199634e-09  -6.7093346390388933e-10 0.0000000000000000e+00 3.7237259109679255e-09  -1.1157412103613247e-10 0.0000000000000000e+00 -7.1654993883058808e-09  -9.2576665775827903e-10 0.0000000000000000e+00 -1.2685779025265555e-09  -1.0595804260510156e-09 0.0000000000000000e+00 -3.0521026494096849e-09  2.9560469190686560e-10 0.0000000000000000e+00 -1.5279468088712444e-09  1.0495225319165781e-09 0.0000000000000000e+00 -3.9299160537374568e-09  -5.3260897284059917e-10 0.0000000000000000e+00 -1.0580422807405411e-09  7.0114093900903542e-10 0.0000000000000000e+00 -7.7165879966085296e-09  2.4718233101901626e-10 0.0000000000000000e+00 -1.0081965908659686e-08  2.2668537001776386e-11 0.0000000000000000e+00 -1.1626110694182503e-08  -1.3204710656457662e-11 0.0000000000000000e+00 -1.1801588843378445e-08  2.2177266088452510e-11 0.0000000000000000e+00 -1.2202328763344732e-08  -7.0878287613865960e-10 0.0000000000000000e+00 -6.4192097089568996e-09  -3.9285085276776981e-10 0.0000000000000000e+00 -8.7320241621181615e-09  -2.8136737853479579e-10 0.0000000000000000e+00 -1.1761880519119023e-09  -6.6055691968420382e-10 0.0000000000000000e+00 -5.3540640100682822e-10  1.8098563080985181e-10 0.0000000000000000e+00 5.1967299696633298e-09  4.8966342419360474e-11 0.0000000000000000e+00 1.1489770449297166e-08  -1.0925243876858108e-09 0.0000000000000000e+00 8.8034350248968591e-10  -1.2730540279360431e-10 0.0000000000000000e+00 2.0341477546347870e-09  6.2965662613689299e-10 0.0000000000000000e+00 -4.7774696116942125e-09  1.1921198367738537e-11 0.0000000000000000e+00 1.1833751758783743e-08  1.0838521111269550e-10 0.0000000000000000e+00 8.1818640531777539e-09  -5.3251974710289435e-12 0.0000000000000000e+00 9.3255995472522574e-09  -6.8351122780332221e-11 0.0000000000000000e+00 -9.7000072660157857e-09  5.7840858792075903e-11 0.0000000000000000e+00 -4.2420750681212020e-09  9.8578507144845537e-11 0.0000000000000000e+00 -7.0644821980115193e-09  -8.2178405738686440e-10 0.0000000000000000e+00 -9.0404551698339576e-10  -1.0275085665408555e-09 0.0000000000000000e+00 -4.3181333956447689e-09  -6.6270174887671565e-10 0.0000000000000000e+00 -8.3046504919252515e-09  -3.9789710886553446e-11 0.0000000000000000e+00 2.9343369721428845e-09  9.3568992045166523e-11 0.0000000000000000e+00 3.1429574872551571e-10  3.2243552763038321e-10 0.0000000000000000e+00 7.8190860627382726e-09  -1.5599056271374259e-11 0.0000000000000000e+00 1.1828303481319348e-08  7.1705717490499172e-10 0.0000000000000000e+00 7.4246585755807332e-09  3.8890815778386556e-12 0.0000000000000000e+00 -1.0447848994596742e-08  7.1842600354208565e-10 0.0000000000000000e+00 -2.8800819834045960e-09  -5.4108480619303832e-10 0.0000000000000000e+00 7.6223307208166998e-09  5.7546630254462009e-11 0.0000000000000000e+00 -1.1679452043134584e-08  -5.7645144712415839e-10 0.0000000000000000e+00 3.3807084512411274e-09  8.4239971946710905e-10 0.0000000000000000e+00 4.1801982706600893e-09  1.7421981973533239e-10 0.0000000000000000e+00 1.8267181268723486e-09  -2.2725665712602952e-10 0.0000000000000000e+00 -8.5312540761881423e-09  -4.5142577428069728e-11 0.0000000000000000e+00 1.0642493667597210e-08  1.1082461496649176e-09 0.0000000000000000e+00 -2.8359028540414890e-10  1.3350752639035027e-10 0.0000000000000000e+00 1.0221621164028425e-08  7.8233003499725243e-12 0.0000000000000000e+00 -1.1888255923864504e-08  1.0407573868624393e-11 0.0000000000000000e+00 -6.4848477803443673e-09  -1.1932506536490135e-10 0.0000000000000000e+00 -4.0572753270910440e-09  -1.6234056808283790e-12 0.0000000000000000e+00 1.1044761857294643e-08  8.4569726914696175e-10 0.0000000000000000e+00 -3.8236220004779221e-09  -8.3566920195589164e-10 0.0000000000000000e+00 4.7728329530059765e-09  -9.1063175543274889e-10 0.0000000000000000e+00 -6.1070670511224191e-09  2.3033219044602916e-10 0.0000000000000000e+00 -4.8669608244887116e-09  3.2531778332759324e-11 0.0000000000000000e+00 1.0837993593593460e-08  -8.2798920543318668e-11 0.0000000000000000e+00 -9.2297100328389636e-10  -3.8837544898874188e-10 0.0000000000000000e+00 -9.9037684029500647e-09  -7.3191468922531073e-10 0.0000000000000000e+00 -7.4968944836827279e-09  4.3878442887917481e-10 0.0000000000000000e+00 -4.0241735235731387e-09  -1.7472445478391165e-11 0.0000000000000000e+00 -8.7555451695341470e-09  1.3364008191478435e-12 0.0000000000000000e+00 -8.1966459824504884e-12  3.2804362027923663e-11 0.0000000000000000e+00 -5.5500025185540318e-09  -8.1040656700445307e-12 0.0000000000000000e+00 8.2805231342066977e-09  2.3108902133558164e-10 0.0000000000000000e+00 -3.4364250340138719e-09  1.8410028633174036e-10 0.0000000000000000e+00 6.3307831540525672e-09  -4.7283141021941285e-10 0.0000000000000000e+00 -4.4272149954170526e-09  3.9725743522933526e-12 0.0000000000000000e+00 -8.5212331279495483e-09  -2.0832654693741823e-10 0.0000000000000000e+00 1.6974378502642906e-09  -2.9611458150786310e-10 0.0000000000000000e+00 6.0326798577693508e-09  4.5187401282453697e-10 0.0000000000000000e+00 -4.8611702662706569e-09  3.5676882847302144e-10 0.0000000000000000e+00 4.4899219758278336e-09  -4.1462019722285413e-10 0.0000000000000000e+00 -1.6727894424309208e-09  3.4255542614384794e-12 0.0000000000000000e+00 1.4053497593595526e-09  -5.4106185233931554e-10 0.0000000000000000e+00 3.7239114787218118e-09  4.1326235055143076e-10 0.0000000000000000e+00 -1.3993437890288926e-09  5.8924656506564785e-10 0.0000000000000000e+00 3.3176600474780342e-09  -1.7380175404895056e-10 0.0000000000000000e+00 -5.7762480401895581e-09  -2.1481343724147886e-10 0.0000000000000000e+00 -8.4075194203285878e-09  2.7981226030132802e-10 0.0000000000000000e+00 8.6538595466596313e-09  6.3540916598180536e-10 0.0000000000000000e+00 -1.2857906009697491e-09  1.4692729849858589e-10 0.0000000000000000e+00 1.7196385232257791e-09  -2.5852557759064155e-10 0.0000000000000000e+00 7.2117105513304190e-09  2.2934095002502668e-11 0.0000000000000000e+00 6.8651984905312629e-09  2.6870672950377270e-10 0.0000000000000000e+00 -8.2956152602441001e-09  -3.7360955046537081e-11 0.0000000000000000e+00 9.6945964204044402e-09  -5.3698887672479770e-10 0.0000000000000000e+00 -2.1760844155114757e-09  1.4425867722927444e-10 0.0000000000000000e+00 -9.4195817031575899e-09  -2.2644242682192976e-10 0.0000000000000000e+00 9.4430413763143256e-09  -7.1988380811283607e-11 0.0000000000000000e+00 6.7960617033663231e-09  -2.3744163186088840e-10 0.0000000000000000e+00 -8.9852370438048351e-09  -6.8156731860268940e-10 0.0000000000000000e+00 2.3455647707137558e-09  -1.6258357789642722e-10 0.0000000000000000e+00 -3.2127496958123758e-09  1.5428604093509786e-10 0.0000000000000000e+00 -3.0568765800272278e-09  2.9918596873241790e-10 0.0000000000000000e+00 3.7282756745602188e-09  9.4215572932666706e-11 0.0000000000000000e+00 -7.7046093679653361e-09  -3.2213962012068767e-10 0.0000000000000000e+00 3.1957734933296700e-09  -7.0743106632398451e-11 0.0000000000000000e+00 -2.2047952926455242e-09  -5.3900225828190548e-10 0.0000000000000000e+00 -5.8524321021878568e-09  1.6333068693116400e-10 0.0000000000000000e+00 9.0317395508780538e-09  8.9811526447020475e-11 0.0000000000000000e+00 1.3136185581743403e-09  -1.8536228269924762e-10 0.0000000000000000e+00 3.9891530293336652e-09  </DataArray> 
</PointData> 
</Piece>
</UnstructuredGrid>
</VTKFile>