<?xml version="1.0"?>
<VTKFile type="UnstructuredGrid"  version="0.1"  >
<UnstructuredGrid>
<Piece  NumberOfPoints="201" NumberOfCells="657">
<Points>
<DataArray  type="Float64"  NumberOfComponents="3"  format="ascii">-0.5106973261534867 0.1082476745120455 1203.418479791865  -0.1477027748967061 -0.07747287187481354 -1203.657915129904  2442.572806509615 0.1278982157400178 -1148.712277486938  4628.477407832598 0.0789359849438494 -985.6289756046009  6339.868024436658 -0.186290412708897 -724.6692770018617  7425.43806210832 -0.1474367420907607 -383.7361036830424  7797.264085718511 -0.02945983726626044 0.1008680464384069  7425.597457220167 -0.05484897288157321 383.781702616854  6339.872829453525 -0.1276248663813204 724.5978925247895  4628.381353263982 0.1678649565849233 985.7508015719434  2442.729105275012 0.08507495468507609 1148.639056000923  3085.77461253823 -2132.01782034339 -1053.621906248488  3068.681652895313 1655.815521135662 1078.911342630938  7421.031910438204 -1915.151579566073 -184.2273278430011  5376.037627587885 -2079.077732532505 817.1950195393354  6764.498981529771 1933.572917712958 520.2732553430525  6737.09688887124 1933.691871637784 -529.1005369035029  3444.796430861891 1909.228040507456 -1040.915282073749  1190.164923840995 -1904.706224508339 1146.487027091204  5342.908687266778 -1915.602287641005 -834.0217671868841  3716.268293463354 -3749.622891561543 -856.9556027059649  5501.210041455872 -3687.312468646588 -595.5333500870521  3764.052988453769 -5258.771693238182 -568.7952971041985  5293.041239527538 -4947.779161363821 -281.9343762995111  3314.792427301623 -6261.165890613056 -238.0994323493364  4721.52389444543 -5629.047854529632 60.5717567864767  2475.902187862303 -6685.032209827839 108.4941484987807  3601.961137058849 -5812.128145276576 412.3094252316217  1296.528651315328 -6501.241995217382 436.3637867850277  2314.902929447298 -5302.244090806108 720.1538498337584  -89.81233150184966 -5691.017969601418 720.1817407208511  5530.874369394003 -4578.063224592735 350.1877175465088  5343.539662099867 1915.805687844342 834.1062551385893  5390.214391419516 3710.878982693662 615.7170393077632  6509.262660635425 3565.187349436275 280.586173155633  870.4204233436984 -4225.249357738193 960.0272565004434  3187.544725558189 -3711.046368950465 909.130871351912  3718.148984358395 3535.596858384633 883.0678801841577  3561.970815770837 5175.533855511703 620.0709254628309  7435.63067684873 -1868.478033969855 184.2701090647282  6545.719380112727 -3854.006853592343 21.36463056059756  6779.999255932042 -1935.489724275283 -514.9714528892824  1189.923055958051 1904.920296589404 -1146.448362434058  5291.249916282428 1867.154946154714 -845.1690841927625  5349.464959012405 3690.745792798368 -627.8852648963572  1611.203249801284 -6307.400792385656 -491.4225608200331  -1127.014108532002 -6578.301929315756 413.1105182300439  1589.764365018317 -3837.194621246811 -985.7993767660241  6465.067467486437 3607.185294605179 -289.812510813847  4827.801895907833 5196.657847778185 -346.5288737580196  3439.847900074431 5045.263912702085 -666.5537013572729  2703.107904160574 6283.009413528367 -371.2634949275932  1198.211405461453 5891.091506768971 -646.29690157203  348.6014600759548 6795.340017899931 -336.1037421538155  -1227.512022149705 6062.057319821392 -596.720635051281  -2017.76044789397 6678.438776679271 -253.9263997833289  -3566.013859207732 5709.43925170977 -460.0711027988984  -388.3232637877466 7069.347478071029 22.54709974103292  -2492.404302290045 -5477.160244810041 665.9747618934394  -3428.245398394986 -6066.490161726095 331.2706208231406  -4177.870473889679 5939.722768376386 -124.7109641128838  -5531.350624062863 4654.477834014277 -317.9265579659375  -5886.116643848678 4647.855511582055 28.4471545545753  -6918.01166570371 3072.456115118548 -200.0253902298627  -7012.935275208105 2916.97493833077 186.4372091923619  -6162.014993951057 2906.355292090127 -566.4912357504332  -5671.068559724577 4298.066058080202 399.1630410493299  -7330.47272960496 1274.468415171144 -363.7645141756386  -6496.285001560902 2394.454788671472 546.1497124228347  -6264.861250155774 815.7761612454897 -726.5596655591773  -7016.426275243152 -924.6838063022492 -521.3246368031024  -4841.055475381381 3597.066716938318 734.9511826648236  -1089.506472236254 -2926.061280555408 1085.20550961081  -4699.364887109972 -4696.654476288778 546.9853772533379  -5638.220102056121 -1248.655894905981 -825.8602135969751  -6065.295371098437 -2934.749203106063 -587.6361914242849  -7497.239459761799 809.0749150458062 314.2388867181479  -2616.671306276125 4719.854841681893 -809.2989053334264  -5371.085112610214 1536.821913006413 853.5136181382696  1685.015054466946 4764.94732803283 857.0403877895257  -7215.309828187115 -2410.881911013877 -210.6099784472868  -4582.776206396739 497.7306750983809 -987.1860316293305  -3567.034087962024 2729.79071203571 975.9855676978764  -4387.319675859259 -3146.079091220872 -854.5560246002107  -4569.624152997514 -4689.366132040334 -575.0355551223696  -3847.097721944484 5276.014752185816 550.4059260929212  -1954.348254522499 -6839.664348954911 78.51246563938447  -3767.138958374789 459.9593290175213 1063.086360711517  -5542.24101152677 -666.4067224904949 860.7820630501034  -2646.513774782597 -4689.846679615992 -812.2307360694147  -2639.750998285773 -5983.82162396192 -504.7574480789112  -2294.75223215177 -2965.695366997982 -1040.177250154741  3936.593142346434 6112.391477115244 -34.48894268944106  -5303.753595216851 -5044.53190092197 218.0253684717608  -6401.30585540714 -3413.008522885926 383.3895944083389  1394.210914217876 6139.90556019302 564.1711334235275  -505.8666512692052 5533.128776025869 750.9361163287265  -176.0691657205175 4165.683767695912 975.8585286764155  -2139.257163513197 1760.043070593178 1123.225848567581  -3542.530905868337 -3832.038360705241 863.395324680761  1847.639659150922 4658.833786741953 -866.2241249286628  -4356.957243717367 -5670.864324715335 -267.7031028210049  -582.70426091812 3569.599658351439 -1037.856765458445  -1297.215956503105 1530.085656845297 -1160.009159687364  -865.1044522392465 6610.632481423359 412.9801546633075  -1670.407488925025 -1082.999850065349 1163.798107189507  -563.700804177663 -5795.195248478573 -690.2077308157761  -3596.719253448945 -1744.247962420479 1037.736859142397  -5510.188480584019 -2819.057691176112 723.1467115144421  -6848.227115997337 -1359.080993778239 548.0936355571014  -7472.593903649613 -1767.418172097706 174.4734816750921  -7763.372826080734 -229.9384248852437 -108.2931910782137  -3021.961017728911 3037.821381730853 -991.5652751556221  -4565.263448575019 3368.685373266916 -805.967091810616  -661.4683178271729 -6660.932302638648 -398.1001272722471  -266.3318708822781 5222.997715343994 -815.5860679952654  3097.849355176636 6231.137919790694 318.9223283834478  6736.034401752434 -1849.959806673042 538.5346209647473  394.0224332472783 -1998.615729079857 -1153.569411058909  1225.799014152293 -6905.713249698159 -187.6015494766036  -2385.873606754004 4518.556726486001 857.6862263245984  7452.669532992808 1795.745746372929 -188.1892976524068  4970.29310749593 5150.73686583161 316.0675527751965  5861.43167572107 4675.787873072491 -14.09667162119874  -5945.804016732207 -4228.436620263157 -311.7066808448657  -2570.367506516969 6663.402449195377 95.07495614482869  -4319.097569148743 5756.33748523709 224.2869934342319  -425.9317273990209 -4319.116231588305 -954.5164910209112  -1842.475225523311 -787.9041696097936 -1165.266266862947  -3871.624028607895 -1267.678480105862 -1035.530505077912  1790.757042625961 6881.256928698032 -62.34376447798933  209.0585274339443 -7032.809636461774 135.3293061119895  4313.43199634336 -4481.027712054675 665.3082605595276  7465.213007318458 1818.696027925518 167.0451635593907  3446.244223720031 -1895.473226451177 1041.59917374024  -6584.070293094056 -3797.101049754905 30.57711283863494  -1403.312891503253 -4663.865300098242 884.0666936975285  3823.213667665885 3427.927008684117 -884.8961396093222  -6704.376197874189 567.6218552601821 629.6560203001281  1754.527517233826 -5266.990894496523 -763.1240316390026  1927.537759245188 3393.397569221486 1018.680463944825  1104.600382209682 6847.779561056816 255.9738653469261  -4853.83153851205 4450.575730101067 -575.5391836555608  6518.825089811278 -3432.854646805372 -322.9524475745263  -121.1710594747907 1835.773817484468 1162.501090264118  5916.35829327203 -3335.968475423849 559.1703429153387  -7567.291958426234 1701.479501967357 -28.35943486888877  -4012.703944553964 -6074.632462822348 11.69475150612751  -2449.159802353002 -6619.919439734333 -202.3197600818883  6987.22723764342 3150.09559826297 -8.665546287496822  -1756.384350521414 3481.486300072003 1017.256330030066  2186.828420804909 3162.04903120201 -1028.583092535236  -2663.712760308337 519.1007015554803 -1134.640848081755  -2842.366137548929 6199.593598564209 387.8008596815561  6631.570180004827 -3193.367372229017 340.1565554584608  -529.2531895839372 -7027.145220041969 -122.290861155519  -5037.507863749311 1844.295382507177 -882.5321103542474  -3454.996864008866 1563.076728101324 -1056.924460367121  -2180.930661909801 5694.469497280956 637.7180002844966  -5467.051226930605 -5040.138242013521 -68.87569125411027  0.1453489121942519 -0.02333282646961453 -0.03033715437593316  -2513.912996902356 -2765.918292395378 33.34053216867576  3803.960352448959 1079.906492507651 -5.482514678307775  -1515.486375001989 2905.345308441166 266.0295408594134  2836.21012569681 -2061.180638534115 242.5622378798916  -1853.818018968405 301.4326023781848 -536.9545258979715  -3913.158163645468 549.9082055802056 0.3632247005647845  747.4141727391125 3285.221165205256 -230.7973236202373  2646.048853943496 -1620.267569058949 -362.032912998577  -2061.516404079159 -307.6424474442772 521.0345073118341  1972.39566415187 2445.591446075878 420.5591087991098  -728.0827444144859 -2789.34540692507 -456.1640638519183  649.0400868885716 -4030.154097992617 2.196549867238709  1573.721361432886 1069.861674569
[...]
<PointData  Vectors="Coriolis"> 
<DataArray  type="Float64"  Name="Coriolis"  NumberOfComponents="3" format="ascii">3.6300170977214323e-10 0.0000000000000000e+00 -5.5161253317997380e-12  -3.6053232989443452e-10 0.0000000000000000e+00 -1.7685079266246307e-12  -3.0220894140910467e-10 0.0000000000000000e+00 1.3205060326672738e-09  -1.7067826807436827e-10 0.0000000000000000e+00 2.3158652623619458e-09  -3.7294252723392322e-11 0.0000000000000000e+00 2.8524800812933035e-09  8.2034071516443660e-12 0.0000000000000000e+00 3.0579717225605080e-09  -1.0342176891065458e-12 0.0000000000000000e+00 3.1056139032830654e-09  -8.7263138628869683e-12 0.0000000000000000e+00 3.0595509643385242e-09  3.7968076074536605e-11 0.0000000000000000e+00 2.8524927532900989e-09  1.6947659326048009e-10 0.0000000000000000e+00 2.3149387788033304e-09  3.0285780641142347e-10 0.0000000000000000e+00 1.3220309340052865e-09  -2.4080795928156751e-10 0.0000000000000000e+00 1.5794524243127667e-09  2.5560830786881649e-10 0.0000000000000000e+00 1.6006643901712488e-09  5.2579786426723933e-12 0.0000000000000000e+00 2.9529246628887387e-09  9.1973377050722493e-11 0.0000000000000000e+00 2.4815767751732387e-09  8.0382155551789450e-12 0.0000000000000000e+00 2.8423997832910604e-09  -1.0697261082613395e-11 0.0000000000000000e+00 2.8385026909122978e-09  -2.2575603385320365e-10 0.0000000000000000e+00 1.7533574907960927e-09  3.2557393904091269e-10 0.0000000000000000e+00 6.3961999786671103e-10  -9.8589627640476038e-11 0.0000000000000000e+00 2.4833754625387519e-09  -1.5315822426597571e-10 0.0000000000000000e+00 1.7076204488415349e-09  -5.1684448085508437e-11 0.0000000000000000e+00 2.3129318929785663e-09  -8.2934155000320254e-11 0.0000000000000000e+00 1.5113718616915880e-09  -2.2339093645664674e-11 0.0000000000000000e+00 2.0116329879767753e-09  -3.3273271573789917e-11 0.0000000000000000e+00 1.2035348330768127e-09  4.9148720850050876e-12 0.0000000000000000e+00 1.7234788623755285e-09  1.6934637876586600e-11 0.0000000000000000e+00 8.6798318083659045e-10  5.6725673970173339e-11 0.0000000000000000e+00 1.3656401308744389e-09  8.1674492591531819e-11 0.0000000000000000e+00 4.8359354057961500e-10  1.4238176599663614e-10 0.0000000000000000e+00 9.7785495659416702e-10  1.5676458252060264e-10 0.0000000000000000e+00 -3.6669769363991746e-11  2.4815700908686095e-11 0.0000000000000000e+00 2.1531121120374984e-09  9.7600117681412351e-11 0.0000000000000000e+00 2.4899920318422269e-09  5.5688705414209140e-11 0.0000000000000000e+00 2.2746402592390586e-09  5.8727591749367752e-12 0.0000000000000000e+00 2.5542979643386038e-09  2.4155767401080865e-10 0.0000000000000000e+00 4.1309119513581330e-10  1.8738076114851565e-10 0.0000000000000000e+00 1.5086565821758007e-09  1.6176015761917046e-10 0.0000000000000000e+00 1.7312111943671370e-09  9.8761913059405271e-11 0.0000000000000000e+00 1.4538523236308968e-09  -5.8790717114322723e-12 0.0000000000000000e+00 2.9623765952379369e-09  -9.0247901118123332e-13 0.0000000000000000e+00 2.5169723691562690e-09  -9.9871232637227852e-12 0.0000000000000000e+00 2.8543205199081639e-09  -3.2599317902211383e-10 0.0000000000000000e+00 6.3671319052461057e-10  -1.0271555764542310e-10 0.0000000000000000e+00 2.4750068301584298e-09  -5.8761401837996594e-11 0.0000000000000000e+00 2.2625809446099999e-09  -9.2361483245167081e-11 0.0000000000000000e+00 6.1229680138171666e-10  7.7315946355134806e-11 0.0000000000000000e+00 -4.2663095896331660e-10  -2.4689443313358401e-10 0.0000000000000000e+00 7.7708381558439546e-10  -7.6633527431117835e-12 0.0000000000000000e+00 2.5400233277744431e-09  -3.3085892327114647e-11 0.0000000000000000e+00 1.8410050124485166e-09  -1.1158499428206974e-10 0.0000000000000000e+00 1.4350032595256809e-09  -5.9695322787966706e-11 0.0000000000000000e+00 1.0039865548312041e-09  -1.3268007433307720e-10 0.0000000000000000e+00 4.8593719023027030e-10  -6.2392266684313641e-11 0.0000000000000000e+00 1.1989945300062890e-10  -1.2123643569657818e-10 0.0000000000000000e+00 -4.9014733954491195e-10  -4.2470423875157348e-11 0.0000000000000000e+00 -7.2800065936292825e-10  -6.5305216198976005e-11 0.0000000000000000e+00 -1.3807425973692248e-09  3.2082299274091792e-12 0.0000000000000000e+00 -1.4272922159544159e-10  1.2505602332435542e-10 0.0000000000000000e+00 -1.0310885460708403e-09  4.6155887576005943e-11 0.0000000000000000e+00 -1.2715235541398920e-09  -1.3824834005577672e-11 0.0000000000000000e+00 -1.5247342840588074e-09  -2.0058543557758903e-11 0.0000000000000000e+00 -2.1334552997616830e-09  1.8665407246090593e-12 0.0000000000000000e+00 -2.2094564068302413e-09  8.8588706560944078e-13 0.0000000000000000e+00 -2.7184979770401610e-09  1.2138339922151597e-12 0.0000000000000000e+00 -2.7556168561235116e-09  -2.8764030496473154e-11 0.0000000000000000e+00 -2.5877596744823740e-09  2.4081945397344777e-11 0.0000000000000000e+00 -2.2366331307390623e-09  7.1609563688706972e-12 0.0000000000000000e+00 -2.9900301244805421e-09  2.0191074606547296e-11 0.0000000000000000e+00 -2.7318722407334441e-09  -4.0612398209810314e-11 0.0000000000000000e+00 -2.8126443583263389e-09  -1.2555320947463433e-12 0.0000000000000000e+00 -2.9585886933855464e-09  9.3004367391635585e-11 0.0000000000000000e+00 -2.1302071451504052e-09  3.0078711279861470e-10 0.0000000000000000e+00 -5.6747061151688188e-10  6.3657468622105596e-11 0.0000000000000000e+00 -1.9088280884289436e-09  -8.1883722999722949e-11 0.0000000000000000e+00 -2.6218655409011307e-09  -3.2921980522162822e-11 0.0000000000000000e+00 -2.5599976464193836e-09  -9.2591034709124587e-12 0.0000000000000000e+00 -3.0413610066146265e-09  -1.6316288451078575e-10 0.0000000000000000e+00 -1.1603251305570866e-09  9.6982783594468645e-11 0.0000000000000000e+00 -2.5224703981523647e-09  1.9329941752993769e-10 0.0000000000000000e+00 7.6445036636688810e-10  5.8004475489750063e-12 0.0000000000000000e+00 -2.8480483884708784e-09  -1.6844081728260118e-10 0.0000000000000000e+00 -2.2847602587301051e-09  2.0011409616548666e-10 0.0000000000000000e+00 -1.7498951021056764e-09  -1.3297615731212938e-10 0.0000000000000000e+00 -2.0261436834692671e-09  -6.9047105675649021e-11 0.0000000000000000e+00 -1.8695161542579192e-09  7.8062812310112824e-11 0.0000000000000000e+00 -1.5374454095330790e-09  1.2729981933737107e-11 0.0000000000000000e+00 -6.8558668083749587e-10  2.2922202778957269e-10 0.0000000000000000e+00 -1.9516249960736932e-09  9.5465390332726922e-11 0.0000000000000000e+00 -2.6190004521023960e-09  -1.6299024999100974e-10 0.0000000000000000e+00 -1.1768289915166774e-09  -8.4255569846719869e-11 0.0000000000000000e+00 -1.0200164298880659e-09  -2.5570716111235082e-10 0.0000000000000000e+00 -1.1630990374021145e-09  -4.8983177114064026e-12 0.0000000000000000e+00 1.4237425883502803e-09  1.7304804039529034e-11 0.0000000000000000e+00 -2.0051103265556203e-09  1.0470128330613593e-11 0.0000000000000000e+00 -2.5596754923059574e-09  1.0971270569169177e-10 0.0000000000000000e+00 5.4444839988135585e-10  1.6919468870289603e-10 0.0000000000000000e+00 -2.2358276145797959e-10  2.5150091720644804e-10 0.0000000000000000e+00 -8.5933788406043637e-11  2.9421171534452941e-10 0.0000000000000000e+00 -1.1374290857533438e-09  1.5915907706710689e-10 0.0000000000000000e+00 -1.6302294128282677e-09  -1.9502277213018896e-10 0.0000000000000000e+00 8.3988811011760238e-10  -2.8615900333121684e-11 0.0000000000000000e+00 -1.6240904129073898e-09  -2.7995617347036805e-10 0.0000000000000000e+00 -2.8941777184044244e-10  -3.3019528410023397e-10 0.0000000000000000e+00 -7.0406449533017877e-10  7.8016685912643723e-11 0.0000000000000000e+00 -3.2663170221588323e-10  3.2877337582893163e-10 0.0000000000000000e+00 -9.0800373450288643e-10  -1.4848878271780369e-10 0.0000000000000000e+00 -2.3146589632990533e-10  2.1932731895764995e-10 0.0000000000000000e+00 -1.8239761380800916e-09  7.2105143837681300e-11 0.0000000000000000e+00 -2.4381421381260091e-09  4.7680464975930022e-12 0.0000000000000000e+00 -2.9004567025407455e-09  -5.9822024781769769e-12 0.0000000000000000e+00 -2.9580075874642712e-09  6.6099672922352281e-12 0.0000000000000000e+00 -3.0886593407943940e-09  -2.1677883870038418e-10 0.0000000000000000e+00 -1.4946130317511274e-09  -1.1633615315600733e-10 0.0000000000000000e+00 -2.0702388468556674e-09  -7.4749223182794454e-11 0.0000000000000000e+00 -2.5269579240438897e-10  -1.8920367024789185e-10 0.0000000000000000e+00 -1.1902822544569360e-10  4.7482377822490727e-11 0.0000000000000000e+00 1.1406283138285651e-09  1.3113012616417656e-11 0.0000000000000000e+00 2.8501112170836939e-09  -3.3826599297462465e-10 0.0000000000000000e+00 2.0382797630589556e-10  -3.3019882915809211e-11 0.0000000000000000e+00 4.3102010296512678e-10  1.8363930590301679e-10 0.0000000000000000e+00 -1.0820237665342191e-09  5.7080043427312299e-12 0.0000000000000000e+00 2.9639747883519271e-09  2.7511538285870724e-11 0.0000000000000000e+00 1.8877971284918151e-09  -7.2259910849948714e-13 0.0000000000000000e+00 2.1998918949773504e-09  -1.6602025338624193e-11 0.0000000000000000e+00 -2.3133462464108639e-09  1.4198615866129952e-11 0.0000000000000000e+00 -9.1242773791190464e-10  2.4383014174149723e-11 0.0000000000000000e+00 -1.5930403365863313e-09  -2.4358826087847960e-10 0.0000000000000000e+00 -2.0339714048412709e-10  -3.2298234845879112e-10 0.0000000000000000e+00 -1.0023906983152154e-09  -2.1014147179086859e-10 0.0000000000000000e+00 -1.9735937035243266e-09  -9.7985955666926079e-12 0.0000000000000000e+00 6.2153113400929520e-10  2.4134512231190711e-11 0.0000000000000000e+00 6.4674637727718338e-11  9.0538528239346916e-11 0.0000000000000000e+00 1.8174230686712416e-09  -5.2956374375906469e-12 0.0000000000000000e+00 2.9625188695336057e-09  2.2483860904554385e-10 0.0000000000000000e+00 1.7492605566197021e-09  2.3212873808838923e-13 0.0000000000000000e+00 -2.5287268760513036e-09  2.0882433378001485e-10 0.0000000000000000e+00 -6.4599921636892587e-10  -1.6191084358818274e-10 0.0000000000000000e+00 1.7847184976236647e-09  1.6790142715658929e-11 0.0000000000000000e+00 -2.9154687399683593e-09  -1.6301353866078633e-10 0.0000000000000000e+00 7.5281842696216992e-10  2.5536381578256391e-10 0.0000000000000000e+00 9.5786541236874268e-10  4.5286882890394443e-11 0.0000000000000000e+00 3.8684200331114686e-10  -6.2134825335011815e-11 0.0000000000000000e+00 -1.9982170161205152e-09  -9.4417027225681779e-12 0.0000000000000000e+00 2.5898720306420502e-09  3.4428514963267164e-10 0.0000000000000000e+00 -6.7459418595555131e-11  3.6227345270698984e-11 0.0000000000000000e+00 2.4731591876998106e-09  1.7926251183857344e-12 0.0000000000000000e+00 -2.9848452546397820e-09  2.6299072158177965e-12 0.0000000000000000e+00 -1.4455867810416159e-09  -3.0867129852351178e-11 0.0000000000000000e+00 -8.7233269876325999e-10  3.9289426101387596e-13 0.0000000000000000e+00 2.7149439440917812e-09  2.5539574686255213e-10 0.0000000000000000e+00 -8.7261318814197987e-10  -2.5343108653524349e-10 0.0000000000000000e+00 1.0978324166454610e-09  -2.8814590195924172e-10 0.0000000000000000e+00 -1.4283307751580662e-09  6.0156140027695529e-11 0.0000000000000000e+00 -1.0677476942959865e-09  6.6100808286520494e-12 0.0000000000000000e+00 2.6502936873222688e-09  -2.1707162853006767e-11 0.0000000000000000e+00 -1.9662131921065897e-10  -1.2184898443318855e-10 0.0000000000000000e+00 -2.3937021974611829e-09  -2.3031920311812400e-10 0.0000000000000000e+00 -1.7698990415583180e-09  1.2077314136752354e-10 0.0000000000000000e+00 -8.8993414227457875e-10  -4.5556574753094453e-12 0.0000000000000000e+00 -2.0421724267115990e-09  3.1640435870796324e-13 0.0000000000000000e+00 1.1663276158945727e-12  9.9895547589709473e-12 0.0000000000000000e+00 -1.2926682761595336e-09  -1.8880929010871023e-12 0.0000000000000000e+00 1.9764667469599066e-09  7.0847828600421306e-11 0.0000000000000000e+00 -7.9163300346754372e-10  5.8747936252090686e-11 0.0000000000000000e+00 1.4850760964239708e-09  -1.5007245923262049e-10 0.0000000000000000e+00 -1.0323576548351366e-09  9.2762660201372860e-13 0.0000000000000000e+00 -2.0400162522394457e-09  -6.3652678059507195e-11 0.0000000000000000e+00 3.8964391423533809e-10  -9.3223929951204857e-11 0.0000000000000000e+00 1.4139678990054660e-09  1.4308417285551909e-10 0.0000000000000000e+00 -1.1350913275361497e-09  1.1119534642472808e-10 0.0000000000000000e+00 1.0420580401268800e-09  -1.2782618379400337e-10 0.0000000000000000e+00 -3.8265397230911885e-10  9.9231366362396511e-13 0.0000000000000000e+00 3.1916363059407652e-10  -1.6985300394756382e-10 0.0000000000000000e+00 8.6455359310988658e-10  1.2614109951660188e-10 0.0000000000000000e+00 -3.1959869925605186e-10  1.8620583956566837e-10 0.0000000000000000e+00 7.7019872443874864e-10  -5.3901347740075203e-11 0.0000000000000000e+00 -1.3447701496623212e-09  -6.8751677060042146e-11 0.0000000000000000e+00 -2.0063183830053568e-09  9.0453008461259768e-11 0.0000000000000000e+00 2.0719865968903809e-09  1.9781845869871563e-10 0.0000000000000000e+00 -2.9682553224517843e-10  4.3705077364392846e-11 0.0000000000000000e+00 3.9072097110550181e-10  -7.9594720024532488e-11 0.0000000000000000e+00 1.6992228998293218e-09  7.5668392068644977e-12 0.0000000000000000e+00 1.6030215486264399e-09  8.4637213486277295e-11 0.0000000000000000e+00 -1.9781523836737851e-09  -1.1324462745993037e-11 0.0000000000000000e+00 2.3491136692799752e-09  -1.6594706417865149e-10 0.0000000000000000e+00 -5.0015897569427207e-10  4.5444766949218838e-11 0.0000000000000000e+00 -2.2724295065045989e-09  -7.2131012963627121e-11 0.0000000000000000e+00 2.2793640296665993e-09  -2.1320161965740923e-11 0.0000000000000000e+00 1.5875455076833688e-09  -7.6096582940543136e-11 0.0000000000000000e+00 -2.1578228277104525e-09  -2.1346184160929907e-10 0.0000000000000000e+00 5.4071536867859419e-10  -4.8501780977655933e-11 0.0000000000000000e+00 -7.2681389032163042e-10  4.5091908371409910e-11 0.0000000000000000e+00 -6.8907787882020090e-10  8.9398959113554989e-11 0.0000000000000000e+00 8.5163532282395388e-10  2.7791130643559737e-11 0.0000000000000000e+00 -1.8125166129942425e-09  -9.6316638650559956e-11 0.0000000000000000e+00 7.2833140984032951e-10  -2.1024177666904837e-11 0.0000000000000000e+00 -4.9671753425875146e-10  -1.6999440123517807e-10 0.0000000000000000e+00 -1.3681840469660785e-09  5.1457904646363029e-11 0.0000000000000000e+00 2.1647852999585902e-09  2.7974945639094556e-11 0.0000000000000000e+00 3.0389675336951888e-10  -5.8277867980271860e-11 0.0000000000000000e+00 9.2768851420899927e-10  </DataArray> 
</PointData> 
</Piece>
</UnstructuredGrid>
</VTKFile>