<?xml version="1.0"?>
<VTKFile type="UnstructuredGrid"  version="0.1"  >
<UnstructuredGrid>
<Piece  NumberOfPoints="201" NumberOfCells="657">
<Points>
<DataArray  type="Float64"  NumberOfComponents="3"  format="ascii">-10.83361124055432 -3.140670244951292 3495.960256412939  -20.10489741229858 0.5803735342938779 -3495.354957566548  1801.395807518395 0.07752740225942628 -3316.822944193003  3343.666271096622 -0.8277697382111456 -2814.200229783181  4561.098146446671 -0.4996852688616648 -2023.817944540569  5366.342027834178 0.2532806077504537 -1039.076362707832  5632.65844058924 -0.1403404279162392 57.58466333634784  5366.972270233679 -4.033594873551463 1146.545410694872  4641.359534588822 0.6748011385677122 2113.895850367985  3423.979978930479 3.090095119197764 2850.367081856711  1778.717619216685 1.438879034335884 3329.14698979327  2326.997591833233 -89.45902419702945 -3093.295230453319  2300.145286659208 70.28219481128636 3167.601321154101  5470.593834150136 -97.6887026026028 -483.0214074442284  4072.747916778405 -90.23577314341063 2416.103417853059  5014.354291694081 95.24753175058154 1563.018844522188  4976.028591219567 92.70520353215565 -1478.35772292224  2570.820597130684 82.52877104817908 -3040.248708743838  872.0475694064974 -79.94895660714205 3384.174320208769  3926.370434380658 -85.4737819055142 -2396.470223877393  2934.417865510956 -133.5149678513156 -2622.638600006745  4322.390371570127 -135.3821703130483 -1777.961818018167  3300.016876623596 -127.556457863689 -1879.127487169863  4538.984691606358 -147.4062087292787 -867.1284704730044  3293.644067154049 -100.4878864581055 -840.4776258295867  4307.475155606503 -132.7014716700463 254.9858809223673  2612.607227278262 -84.230811738592 448.7749264580786  3377.747185415995 -116.9635731262104 1485.167113760949  1312.340794176614 -87.10846375312885 1684.898328935829  2062.328995852386 -119.8576103045092 2449.580344272427  -82.28655286983089 -112.7560045011847 2532.045718012224  4604.034007107388 -149.6715498914633 1166.356464094641  4029.664176658791 87.15788514715885 2458.924151449144  4309.086161581062 137.7456449748314 1929.864517818479  5082.96490111998 144.2742874973827 900.4437813894318  681.9437097774555 -128.0487269527358 3058.673033364102  2577.347860279914 -120.2702909818955 2825.999511243483  2956.295242964481 126.6840937255481 2722.94431774747  3152.970167945647 129.5347207572843 2101.986821002738  5478.704750656057 -97.15444455743391 583.9587131966899  5197.525968876904 -152.6793121154416 116.0871927517013  5018.274054764076 -94.68561605493225 -1434.561095576886  896.5322789498707 77.28635234352438 -3378.202095362646  3883.797402463343 84.21208971195141 -2428.709786211368  4197.287157847485 137.5310925021705 -1878.854629769742  1594.811406344803 -92.72874540896976 -1822.983323075802  -1180.855772778541 -85.0939068500879 1588.898844632564  1293.420526659378 -119.2686707314042 -3076.658452235242  5070.359348508759 150.9507953225732 -825.8050793088048  4240.912171793328 139.4433885585032 -1099.954008057986  2969.470089864424 135.8264008786355 -2183.080091649069  2678.095354020359 97.89152383865714 -1346.786361579801  1120.615837191515 106.6319925099469 -2293.506235864934  350.8194484742248 76.48636204187383 -1345.102447196336  -1202.156882208043 99.44275843416027 -2182.647060035037  -2121.033360674481 83.08023125531234 -1020.525035861096  -3303.504686790883 118.8770366361269 -1649.065110263562  -441.4864776054633 61.98509730865159 95.37714968732627  -2252.978309126469 -122.0603712578934 2272.219726909086  -3280.617999583528 -111.9630989365709 1173.461717711843  -3941.613229190265 116.7571444136228 -485.8779442169826  -4615.470544672509 149.1151412584095 -1071.389854150762  -4881.150186650172 151.9791614348352 35.61395760931901  -5265.54333967614 139.1045226645927 -652.5317989784809  -5287.079840044469 133.7644728349105 502.0042051136678  -4701.434353496688 128.2737387232777 -1738.842952766334  -4596.90623443682 151.0615403865144 1222.241869312073  -5340.412331103454 66.87606047500962 -1101.957191083729  -4827.149924503975 112.953699613661 1575.693971471356  -4565.710141413019 40.28408446757007 -2141.235566957107  -5102.47471937682 -47.30495904677154 -1548.359997272623  -3793.102221408742 130.3452698104692 2231.584777363899  -861.5403398715519 -110.7856823650051 3275.259353028714  -3931.478638140187 -139.8992983027127 1744.905570506094  -4139.377637543528 -60.6188724492045 -2437.398528712481  -4647.468917798841 -126.0519991344378 -1803.168837838392  -5389.43052104834 45.1430627144163 858.8945627126404  -2254.132735638686 127.8859999271724 -2664.507970871171  -3934.112552059135 67.18187809253304 2453.690573663838  1420.650420317287 127.0766972782141 2807.812417558637  -5373.376778842969 -115.3987734086906 -674.5543299665807  -3365.803580869923 24.49761169427433 -2890.563932368158  -2712.909879593787 109.6745460925278 2911.317979320621  -3415.930801597059 -123.7964810784263 -2619.916187150413  -3876.164423709026 -139.0645890194572 -1904.123544969742  -3377.556863031077 129.5903995049837 1832.12625273449  -2126.500301362067 -74.25524303768995 288.2192972015969  -2742.387953500066 23.46192236956857 3070.471602501932  -4017.668157357343 -33.3138925372177 2451.530680172717  -2269.12600529564 -128.7430645976699 -2672.775248465116  -2530.7108168588 -110.9451483485971 -1835.155000824038  -1823.74879008488 -111.4024604175508 -3165.499473929597  3825.864238627367 108.9146304756347 -83.57187584440486  -4567.154302879931 -141.1482104270794 671.5465367182227  -4932.666971988949 -145.6059278075917 1123.025633582148  1345.112489261279 101.5544044503744 2076.340837870249  -476.5148257953065 111.4657462014645 2609.680321256116  -156.488032702252 126.8545886786627 3092.755580739446  -1618.610241965394 72.69373055766981 3292.746795438433  -2817.727621181003 -129.9202714599787 2671.595536174601  1566.725004412929 124.1845817994286 -2809.294700104615  -3994.770029241804 -124.35120658465 -969.8967504757702  -486.5949368093627 119.1540676170543 -3210.573310846242  -1016.18279691449 61.14617333745118 -3410.206043098273  -895.821022739005 83.64217501814697 1600.845102312058  -1266.613864936321 -48.52441770901015 3386.778118590571  -536.4923070831434 -109.7619131786531 -2452.973158177385  -2659.787793967156 -74.64320078000443 3035.268423992637  -4178.956262438785 -118.2634301490463 2124.676572177003  -4967.07755782369 -70.60007362332387 1551.619832029416  -5448.959829660553 -88.26388554682876 451.9587338489386  -5580.530055599548 -11.53759767552521 -364.8466304724133  -2362.107028473203 112.3305682633575 -3031.387408261009  -3585.059736739304 128.0027280081977 -2493.541813813193  -709.296545284801 -82.59220842731193 -1562.253998671451  -240.8089991974962 122.0842934624929 -2760.185359202331  3048.753690974672 105.3052389888953 1196.59239808053  4992.63355619241 -90.39097134258832 1619.232713522409  287.8328737926126 -77.37039277545253 -3411.587803972991  1342.362726889897 -69.01175552363786 -751.6555923729602  -2006.605237285304 131.4983677405874 2754.964225601634  5480.687591358854 94.11211806503293 -493.1399273297229  4340.105136674815 137.8993997310908 1088.290677282364  4901.98145760422 152.2000626735435 6.685262197088115  -4831.440563758159 -150.5580772535853 -1028.228980353144  -2686.559979255394 85.91935084439605 343.2583873615465  -3987.371171204162 121.0756845080303 756.6161668532193  -382.4355100386329 -127.3226822602542 -3059.311064016709  -1412.033408710034 -35.31826064675214 -3403.464792451299  -2877.269183153013 -56.90228115419226 -3048.358307552814  1975.89218873341 73.55566071346712 -234.2102736018229  232.5994372234476 -64.14663851388184 574.8475231016336  3609.694590192922 -136.4710059659616 2149.067899594889  5487.449790210794 89.22756858101305 536.946637995531  2601.550792304945 -74.90844882677587 3065.262405299818  -5174.550608985333 -151.6234199710032 37.44368593570196  -1204.897643229317 -130.4878353441468 2868.703383948783  2975.85733845651 130.3518814539356 -2677.621947717025  -4828.988062953291 29.82648574523679 1776.637848614678  1562.408379070392 -118.6228500313656 -2572.382055757598  1494.150956120529 117.4157203924093 3127.187922816059  1206.61918660401 72.94088288614721 1053.935164317388  -4040.833533625807 138.9663297531959 -1880.922052855895  5071.456558149061 -145.9891498521426 -918.9337475214841  -107.0435097411978 72.27610347764508 3427.547279923504  4614.804121805764 -135.0768121431841 1736.23797031524  -5525.868006215524 88.39383683797966 -135.0622679118721  -3846.948795992706 -114.5023011872538 0.8059997216472103  -2559.299679616672 -87.25940972672247 -810.7179270182525  5355.026548203999 138.5969985191307 26.40485266176876  -1407.041547431254 121.7487969927407 3120.030495564063  1729.28133640457 113.1112470646873 -3118.826115841363  -1995.357914678796 21.26935200273659 -3316.451140853928  -2785.464015692557 103.5525534565656 1411.107784483788  5100.103050742457 -140.6098229649251 1068.926828732556  -608.7134798531223 -65.87350089184166 -522.252391236932  -3760.043955123134 83.81002764960844 -2622.807745494153  -2590.064616489061 67.87522881181238 -3124.602817987015  -2019.087853491358 118.5783114027111 2216.293572180188  -4670.993459530236 -150.4609363086318 -277.513660005072  -21.36359660282897 -0.1908697592674826 -1.62678234248705  -2617.54247042974 -34.31483766824364 109.1488358004019  3690.351519275994 18.81087924214902 19.04525503648898  -1616.324901373812 34.11386273709942 1048.261955387908  2850.783409460557 -29.79470106189578 951.9426971111147  -1805.263325143201 4.293449202397648 -2003.766047238306  -3753.968861771559 7.978389598006077 -36.07953274707127  790.9359294496683 34.8484197299787 -951.067246324261  2623.876577692511 -24.14066335831931 -1338.670710239487  -1992.153120391879 -5.258993882329156 1911.233041062865  1973.095200853995 37.01860833864492 1617.666543279018  -753.1057488631253 -37.98126144147088 -1775.643463380891  735.6083935756179 -34.38238235672688 16.92797266372704  1483.13257871932 18.94373664727915 -2158.10
[...]
<PointData  Vectors="Tidal Force"> 
<DataArray  type="Float64"  Name="Tidal Force"  NumberOfComponents="3" format="ascii">0.0000000000000000e+00 -8.2898485388811529e-15 0.0000000000000000e+00  0.0000000000000000e+00 1.5203043529789264e-15 0.0000000000000000e+00  0.0000000000000000e+00 2.0350530709166731e-16 0.0000000000000000e+00  0.0000000000000000e+00 -2.1906747763397127e-15 0.0000000000000000e+00  0.0000000000000000e+00 -1.3287699463044159e-15 0.0000000000000000e+00  0.0000000000000000e+00 6.5241407273505111e-16 0.0000000000000000e+00  0.0000000000000000e+00 -3.7708336314044239e-16 0.0000000000000000e+00  0.0000000000000000e+00 -1.0648115921061063e-14 0.0000000000000000e+00  0.0000000000000000e+00 1.7657078115306428e-15 0.0000000000000000e+00  0.0000000000000000e+00 8.1581686342924273e-15 0.0000000000000000e+00  0.0000000000000000e+00 3.7828045318215806e-15 0.0000000000000000e+00  0.0000000000000000e+00 -2.3613798162883699e-13 0.0000000000000000e+00  0.0000000000000000e+00 1.8550107286426334e-13 0.0000000000000000e+00  0.0000000000000000e+00 -2.5785918043576822e-13 0.0000000000000000e+00  0.0000000000000000e+00 -2.3817902014996228e-13 0.0000000000000000e+00  0.0000000000000000e+00 2.5140686511092062e-13 0.0000000000000000e+00  0.0000000000000000e+00 2.4468520452668703e-13 0.0000000000000000e+00  0.0000000000000000e+00 2.1783447489100411e-13 0.0000000000000000e+00  0.0000000000000000e+00 -2.1102303255364185e-13 0.0000000000000000e+00  0.0000000000000000e+00 -2.2562154561236467e-13 0.0000000000000000e+00  0.0000000000000000e+00 -3.5242330828109915e-13 0.0000000000000000e+00  0.0000000000000000e+00 -3.5734933380275920e-13 0.0000000000000000e+00  0.0000000000000000e+00 -3.3668755968274638e-13 0.0000000000000000e+00  0.0000000000000000e+00 -3.8908419080864216e-13 0.0000000000000000e+00  0.0000000000000000e+00 -2.6523325509273684e-13 0.0000000000000000e+00  0.0000000000000000e+00 -3.5027453165621946e-13 0.0000000000000000e+00  0.0000000000000000e+00 -2.2234750434827227e-13 0.0000000000000000e+00  0.0000000000000000e+00 -3.0872353630826790e-13 0.0000000000000000e+00  0.0000000000000000e+00 -2.2993106976254119e-13 0.0000000000000000e+00  0.0000000000000000e+00 -3.1637294167483116e-13 0.0000000000000000e+00  0.0000000000000000e+00 -2.9762651162156344e-13 0.0000000000000000e+00  0.0000000000000000e+00 -3.9506964101722063e-13 0.0000000000000000e+00  0.0000000000000000e+00 2.3003880786629558e-13 0.0000000000000000e+00  0.0000000000000000e+00 3.6356223111926365e-13 0.0000000000000000e+00  0.0000000000000000e+00 3.8080032771996957e-13 0.0000000000000000e+00  0.0000000000000000e+00 -3.3798640237800794e-13 0.0000000000000000e+00  0.0000000000000000e+00 -3.1747426451320958e-13 0.0000000000000000e+00  0.0000000000000000e+00 3.3438914680265226e-13 0.0000000000000000e+00  0.0000000000000000e+00 3.4189490136420967e-13 0.0000000000000000e+00  0.0000000000000000e+00 -2.5645259963675227e-13 0.0000000000000000e+00  0.0000000000000000e+00 -4.0300634799379563e-13 0.0000000000000000e+00  0.0000000000000000e+00 -2.4992845890940177e-13 0.0000000000000000e+00  0.0000000000000000e+00 2.0399611400877074e-13 0.0000000000000000e+00  0.0000000000000000e+00 2.2226969349556075e-13 0.0000000000000000e+00  0.0000000000000000e+00 3.6300558424986587e-13 0.0000000000000000e+00  0.0000000000000000e+00 -2.4476301537939858e-13 0.0000000000000000e+00  0.0000000000000000e+00 -2.2461000452711493e-13 0.0000000000000000e+00  0.0000000000000000e+00 -3.1480475372018361e-13 0.0000000000000000e+00  0.0000000000000000e+00 3.9843944948465027e-13 0.0000000000000000e+00  0.0000000000000000e+00 3.6805730422590606e-13 0.0000000000000000e+00  0.0000000000000000e+00 3.5851051114322341e-13 0.0000000000000000e+00  0.0000000000000000e+00 2.5837392915370596e-13 0.0000000000000000e+00  0.0000000000000000e+00 2.8145382515798444e-13 0.0000000000000000e+00  0.0000000000000000e+00 2.0187726463493398e-13 0.0000000000000000e+00  0.0000000000000000e+00 2.6247994799679078e-13 0.0000000000000000e+00  0.0000000000000000e+00 2.1927696839127152e-13 0.0000000000000000e+00  0.0000000000000000e+00 3.1376927083409954e-13 0.0000000000000000e+00  0.0000000000000000e+00 1.6360031055107479e-13 0.0000000000000000e+00  0.0000000000000000e+00 -3.2219079927756938e-13 0.0000000000000000e+00  0.0000000000000000e+00 -2.9552561859835241e-13 0.0000000000000000e+00  0.0000000000000000e+00 3.0817886033928727e-13 0.0000000000000000e+00  0.0000000000000000e+00 3.9359123481570172e-13 0.0000000000000000e+00  0.0000000000000000e+00 4.0113290207851059e-13 0.0000000000000000e+00  0.0000000000000000e+00 3.6715350124441069e-13 0.0000000000000000e+00  0.0000000000000000e+00 3.5306973690362563e-13 0.0000000000000000e+00  0.0000000000000000e+00 3.3856699104824003e-13 0.0000000000000000e+00  0.0000000000000000e+00 3.9872076564445347e-13 0.0000000000000000e+00  0.0000000000000000e+00 1.7650494120076991e-13 0.0000000000000000e+00  0.0000000000000000e+00 2.9812928943908403e-13 0.0000000000000000e+00  0.0000000000000000e+00 1.0631955205497901e-13 0.0000000000000000e+00  0.0000000000000000e+00 -1.2486247680115506e-13 0.0000000000000000e+00  0.0000000000000000e+00 3.4403170708867216e-13 0.0000000000000000e+00  0.0000000000000000e+00 -2.9243712629072590e-13 0.0000000000000000e+00  0.0000000000000000e+00 -3.6926636516803893e-13 0.0000000000000000e+00  0.0000000000000000e+00 -1.6000305497571913e-13 0.0000000000000000e+00  0.0000000000000000e+00 -3.3272519164466746e-13 0.0000000000000000e+00  0.0000000000000000e+00 1.1914038640175406e-13 0.0000000000000000e+00  0.0000000000000000e+00 3.3753749361236456e-13 0.0000000000000000e+00  0.0000000000000000e+00 1.7731297697892801e-13 0.0000000000000000e+00  0.0000000000000000e+00 3.3541864423852777e-13 0.0000000000000000e+00  0.0000000000000000e+00 -3.0459956111455733e-13 0.0000000000000000e+00  0.0000000000000000e+00 6.4666804053481575e-14 0.0000000000000000e+00  0.0000000000000000e+00 2.8946834298727100e-13 0.0000000000000000e+00  0.0000000000000000e+00 -3.2676966868713189e-13 0.0000000000000000e+00  0.0000000000000000e+00 -3.6706371949128204e-13 0.0000000000000000e+00  0.0000000000000000e+00 3.4206249397004987e-13 0.0000000000000000e+00  0.0000000000000000e+00 -1.9601750888073566e-13 0.0000000000000000e+00  0.0000000000000000e+00 6.1919482407744072e-14 0.0000000000000000e+00  0.0000000000000000e+00 -8.7938234464434592e-14 0.0000000000000000e+00  0.0000000000000000e+00 -3.3981795014183294e-13 0.0000000000000000e+00  0.0000000000000000e+00 -2.9285012235511784e-13 0.0000000000000000e+00  0.0000000000000000e+00 -2.9406516874745925e-13 0.0000000000000000e+00  0.0000000000000000e+00 2.8746920261760581e-13 0.0000000000000000e+00  0.0000000000000000e+00 -3.7256434823296562e-13 0.0000000000000000e+00  0.0000000000000000e+00 -3.8434371424344801e-13 0.0000000000000000e+00  0.0000000000000000e+00 2.6804641669076876e-13 0.0000000000000000e+00  0.0000000000000000e+00 2.9421480500267370e-13 0.0000000000000000e+00  0.0000000000000000e+00 3.3482009921766994e-13 0.0000000000000000e+00  0.0000000000000000e+00 1.9186959188619079e-13 0.0000000000000000e+00  0.0000000000000000e+00 -3.4293636970050229e-13 0.0000000000000000e+00  0.0000000000000000e+00 3.2778719522259026e-13 0.0000000000000000e+00  0.0000000000000000e+00 -3.2823610398823365e-13 0.0000000000000000e+00  0.0000000000000000e+00 3.1450548120975467e-13 0.0000000000000000e+00  0.0000000000000000e+00 1.6139167942410933e-13 0.0000000000000000e+00  0.0000000000000000e+00 2.2076136004299897e-13 0.0000000000000000e+00  0.0000000000000000e+00 -1.2808264901337026e-13 0.0000000000000000e+00  0.0000000000000000e+00 -2.8973170279644849e-13 0.0000000000000000e+00  0.0000000000000000e+00 -1.9702306451577686e-13 0.0000000000000000e+00  0.0000000000000000e+00 -3.1216517017820049e-13 0.0000000000000000e+00  0.0000000000000000e+00 -1.8636297769429863e-13 0.0000000000000000e+00  0.0000000000000000e+00 -2.3298963481912474e-13 0.0000000000000000e+00  0.0000000000000000e+00 -3.0459956111455733e-14 0.0000000000000000e+00  0.0000000000000000e+00 2.9648329063172498e-13 0.0000000000000000e+00  0.0000000000000000e+00 3.3784873702321065e-13 0.0000000000000000e+00  0.0000000000000000e+00 -2.1800805294705288e-13 0.0000000000000000e+00  0.0000000000000000e+00 3.2223269742902943e-13 0.0000000000000000e+00  0.0000000000000000e+00 2.7794036588554890e-13 0.0000000000000000e+00  0.0000000000000000e+00 -2.3859201621435417e-13 0.0000000000000000e+00  0.0000000000000000e+00 -2.0421757566648813e-13 0.0000000000000000e+00  0.0000000000000000e+00 -1.8217316254829371e-13 0.0000000000000000e+00  0.0000000000000000e+00 3.4708428669504716e-13 0.0000000000000000e+00  0.0000000000000000e+00 2.4839618365600567e-13 0.0000000000000000e+00  0.0000000000000000e+00 3.6397522718365554e-13 0.0000000000000000e+00  0.0000000000000000e+00 4.0173144709936842e-13 0.0000000000000000e+00  0.0000000000000000e+00 -3.9739199569814906e-13 0.0000000000000000e+00  0.0000000000000000e+00 2.2678272295282891e-13 0.0000000000000000e+00  0.0000000000000000e+00 3.1957515753642061e-13 0.0000000000000000e+00  0.0000000000000000e+00 -3.3607105831126280e-13 0.0000000000000000e+00  0.0000000000000000e+00 -9.3235357899026516e-14 0.0000000000000000e+00  0.0000000000000000e+00 -1.5019290208385905e-13 0.0000000000000000e+00  0.0000000000000000e+00 1.9413807751524204e-13 0.0000000000000000e+00  0.0000000000000000e+00 -1.6932240095047579e-13 0.0000000000000000e+00  0.0000000000000000e+00 -3.6021636445266831e-13 0.0000000000000000e+00  0.0000000000000000e+00 2.3550352390672771e-13 0.0000000000000000e+00  0.0000000000000000e+00 -1.9772336219018053e-13 0.0000000000000000e+00  0.0000000000000000e+00 -4.0021712819659807e-13 0.0000000000000000e+00  0.0000000000000000e+00 -3.4442076135222975e-13 0.0000000000000000e+00  0.0000000000000000e+00 3.4404966343929791e-13 0.0000000000000000e+00  0.0000000000000000e+00 7.8720641143223777e-14 0.0000000000000000e+00  0.0000000000000000e+00 -3.1311685676136446e-13 0.0000000000000000e+00  0.0000000000000000e+00 3.0990266999935786e-13 0.0000000000000000e+00  0.0000000000000000e+00 1.9251003505850869e-13 0.0000000000000000e+00  0.0000000000000000e+00 3.6680035968210460e-13 0.0000000000000000e+00  0.0000000000000000e+00 -3.8535525532869778e-13 0.0000000000000000e+00  0.0000000000000000e+00 1.9076228359760380e-13 0.0000000000000000e+00  0.0000000000000000e+00 -3.5654728347480972e-13 0.0000000000000000e+00  0.0000000000000000e+00 2.3329489277976223e-13 0.0000000000000000e+00  0.0000000000000000e+00 -3.0222932283196025e-13 0.0000000000000000e+00  0.0000000000000000e+00 -2.3032012402609878e-13 0.0000000000000000e+00  0.0000000000000000e+00 3.6581276039768913e-13 0.0000000000000000e+00  0.0000000000000000e+00 3.2135283624836841e-13 0.0000000000000000e+00  0.0000000000000000e+00 2.9854228550347596e-13 0.0000000000000000e+00  0.0000000000000000e+00 5.6119581155631551e-14 0.0000000000000000e+00  0.0000000000000000e+00 2.7331959832452634e-13 0.0000000000000000e+00  0.0000000000000000e+00 -3.7113981108332397e-13 0.0000000000000000e+00  0.0000000000000000e+00 -1.7388331400941255e-13 0.0000000000000000e+00  0.0000000000000000e+00 2.2121026880864236e-13 0.0000000000000000e+00  0.0000000000000000e+00 1.7914452474275301e-13 0.0000000000000000e+00  0.0000000000000000e+00 3.1298517685677572e-13 0.0000000000000000e+00  0.0000000000000000e+00 -3.9714659223959731e-13 0.0000000000000000e+00  0.0000000000000000e+00 -5.0277781752058982e-16 0.0000000000000000e+00  0.0000000000000000e+00 -9.0577818006417685e-14 0.0000000000000000e+00  0.0000000000000000e+00 4.9643324029949664e-14 0.0000000000000000e+00  0.0000000000000000e+00 9.0045112937854202e-14 0.0000000000000000e+00  0.0000000000000000e+00 -7.8660786641137992e-14 0.0000000000000000e+00  0.0000000000000000e+00 1.1336442695047585e-14 0.0000000000000000e+00  0.0000000000000000e+00 2.1050828383570408e-14 0.0000000000000000e+00  0.0000000000000000e+00 9.1984398805433630e-14 0.0000000000000000e+00  0.0000000000000000e+00 -6.3727088370734754e-14 0.0000000000000000e+00  0.0000000000000000e+00 -1.3886244483902005e-14 0.0000000000000000e+00  0.0000000000000000e+00 9.7694518304417465e-14 0.0000000000000000e+00  0.0000000000000000e+00 -1.0026826189410620e-13 0.0000000000000000e+00  0.0000000000000000e+00 -9.0763366962883617e-14 0.0000000000000000e+00  0.0000000000000000e+00 4.9996465592255797e-14 0.0000000000000000e+00  0.0000000000000000e+00 -1.1181419534645403e-13 0.0000000000000000e+00  0.0000000000000000e+00 -1.7471529158840497e-14 0.0000000000000000e+00  0.0000000000000000e+00 1.1303522718900403e-13 0.0000000000000000e+00  0.0000000000000000e+00 -8.0103280141405397e-14 0.0000000000000000e+00  0.0000000000000000e+00 1.1438195348593418e-14 0.0000000000000000e+00  0.0000000000000000e+00 9.2229802263985334e-14 0.0000000000000000e+00  0.0000000000000000e+00 1.0991082218012609e-13 0.0000000000000000e+00  0.0000000000000000e+00 1.2351575050422490e-13 0.0000000000000000e+00  0.0000000000000000e+00 1.4524293476136468e-13 0.0000000000000000e+00  0.0000000000000000e+00 9.3875801071344408e-14 0.0000000000000000e+00  0.0000000000000000e+00 -8.4819814905765214e-14 0.0000000000000000e+00  0.0000000000000000e+00 1.2396465926986829e-13 0.0000000000000000e+00  0.0000000000000000e+00 -9.4061350027810340e-14 0.0000000000000000e+00  0.0000000000000000e+00 1.7441601907797604e-14 0.0000000000000000e+00  0.0000000000000000e+00 -1.4284276922772471e-13 0.0000000000000000e+00  0.0000000000000000e+00 8.0809563266017663e-14 0.0000000000000000e+00  0.0000000000000000e+00 -7.2615481930473754e-14 0.0000000000000000e+00  0.0000000000000000e+00 -1.3175172999122885e-13 0.0000000000000000e+00  0.0000000000000000e+00 -1.3315232534003621e-13 0.0000000000000000e+00  0.0000000000000000e+00 -1.4423139367611491e-13 0.0000000000000000e+00  0.0000000000000000e+00 1.6224161335372748e-13 0.0000000000000000e+00  0.0000000000000000e+00 -1.3503774215573842e-13 0.0000000000000000e+00  0.0000000000000000e+00 1.2124726487517367e-13 0.0000000000000000e+00  0.0000000000000000e+00 -1.0923446630655672e-13 0.0000000000000000e+00  0.0000000000000000e+00 1.3964055336613526e-13 0.0000000000000000e+00  0.0000000000000000e+00 4.9098648060969025e-14 0.0000000000000000e+00  0.0000000000000000e+00 3.5128607274146926e-14 0.0000000000000000e+00  </DataArray> 
</PointData> 
</Piece>
</UnstructuredGrid>
</VTKFile>