<?xml version="1.0"?>
<VTKFile type="UnstructuredGrid"  version="0.1"  >
<UnstructuredGrid>
<Piece  NumberOfPoints="201" NumberOfCells="657">
<Points>
<DataArray  type="Float64"  NumberOfComponents="3"  format="ascii">-0.1225513158557046 0.02582579311222547 775.8851324758531  -0.03305997530372675 -0.01788967597281761 -775.9442742357174  1498.222808464055 0.03143806916949016 -738.9498503700768  2845.661599880592 0.02053120730751428 -630.6968285474505  3909.410258128555 -0.0452973250569182 -460.3687971815311  4589.15793425243 -0.03646023686739973 -242.7200379367462  4822.832449947821 -0.00734328907466251 0.02387969156577523  4589.198239436152 -0.01320427943481855 242.7282947490439  3909.411982818662 -0.03078345821686628 460.3481215327146  2845.636976589253 0.0421565723750112 630.72593617993  1498.262583089839 0.02047574149293208 738.9291590078404  1896.001939843547 -1369.527886326198 -676.3938446975818  1884.38697439279 1063.738347174471 692.9744156093752  4590.341977630615 -1223.374063583409 -116.4752239347616  3312.917683060101 -1332.316305199577 521.0269704295812  4178.707909003381 1236.497215646378 329.8007236855136  4161.505868359469 1236.51847401851 -335.493628468599  2116.9289019439 1226.051573984723 -667.7796507444252  730.1866273789412 -1224.950380054134 738.4057482424846  3291.867337907835 -1227.61287896816 -531.9362351365943  2290.590139017193 -2406.494817241019 -548.5011674962702  3398.52382843729 -2361.703432936089 -379.1014528866231  2328.213784100613 -3373.101794666011 -363.3327943539562  3277.994046706332 -3168.675211733287 -179.3837853682275  2055.150313943403 -4016.014809950331 -152.0318274109913  2926.80055871818 -3606.561920642121 38.5421562540924  1536.244783147886 -4289.641445905228 69.34228570435079  2230.996249934986 -3727.742665851097 263.2389719365402  803.3927471400801 -4174.393335245885 279.4090333568163  1430.119984187755 -3404.769758469216 461.4297092960843  -55.53462834676704 -3656.218681305557 461.9847401852675  3423.319758177397 -2931.370212942256 222.70169625547  3292.021538217961 1227.66350417831 531.9534678621677  3329.661799591007 2377.099701096032 392.0354855105451  4027.91258560481 2280.117268519766 177.9141780597984  536.0576553730446 -2715.806102341458 617.1092306629234  1963.112409735209 -2382.942702418098 582.8383880192794  2290.904585286413 2269.199840458663 565.3651864453738  2202.351500052932 3320.492284622888 396.4023838625981  4599.230181249963 -1193.559880321796 116.4755486810492  4052.41512418118 -2464.765906471706 13.49442996755186  4188.086607405407 -1237.646845934428 -326.5172500910607  730.1328562014477 1225.002295580915 -738.3970030673262  3259.467389189215 1196.72072876974 -539.1535431419446  3304.301343414251 2364.267127848233 -399.8585009813675  997.9541501466852 -4049.860929697827 -314.6800024815819  -698.1271518361453 -4223.943527795474 264.5175246009595  978.2188271608935 -2466.155951489293 -633.6364745841136  4000.455729450861 2307.177550460684 -183.8255331716794  2989.707117655383 3329.577468846514 -220.6942246184602  2125.693259237818 3237.445437697033 -426.3268293196919  1675.093879295191 4031.845532945095 -237.3559099063497  741.0123820762675 3783.786109670825 -414.2842576434942  216.3898749642678 4363.327308556821 -215.1896160652754  -759.4273461194776 3893.295543546166 -382.4562276694131  -1251.223177733206 4286.407617849686 -162.4005557251601  -2207.65460465613 3662.132049304309 -293.8108998568678  -240.710181268731 4538.682439470571 14.39720540462935  -1540.588852421451 -3516.31869695663 426.4647012782272  -2124.470034809427 -3890.945105998667 211.5218766296001  -2589.870491632886 3807.287823136265 -79.49451897891768  -3424.357940777449 2980.132378555319 -202.091361117141  -3646.209600162408 2974.429928459479 18.08531206499491  -4280.605871666615 1963.879603190182 -126.6420964067357  -4339.321261978428 1864.255271232877 118.1174473517999  -3806.722818491041 1859.981351930681 -359.8495942271364  -3508.972944243319 2751.689228561017 253.6921081749178  -4531.57411529063 814.303164958993 -230.1078767659851  -4013.003549987423 1531.665225680022 346.64771325733  -3863.400218964716 522.1623556817725 -461.6890567416316  -4333.870977780922 -591.1779179814889 -330.2156370427039  -2987.247853319024 2305.826049681912 468.9613901198758  -669.110572616886 -1881.328451795802 698.6438100028639  -2905.788697692174 -3010.227525091908 348.7984173108473  -3473.700978739596 -799.8665370993886 -526.1416234407926  -3746.506743689415 -1878.375835428576 -373.3968205000468  -4635.247969513801 516.8462498288002 198.664758164232  -1614.481394731475 3030.753640159132 -518.6815733811994  -3308.242621071762 984.8008790975031 544.2264903110713  1039.02853046212 3061.412476578731 550.0517029975695  -4463.997181990228 -1540.406389131736 -133.1602736473614  -2817.875358916469 319.2298995755863 -631.5945381945231  -2194.483207938272 1752.713727469347 625.6771063132467  -2703.737604367288 -2017.994155022152 -546.2255184471485  -2825.081775372703 -3005.960453819786 -366.7664328235882  -2379.843386638134 3383.856815210022 351.5028689351153  -1212.631233451652 -4389.63867603435 50.19721397909136  -2313.711342351424 295.1883344928644 681.9653097344353  -3413.029827385849 -426.9298510671661 548.7769674957721  -1632.765835050866 -3011.401068878984 -520.5329373896814  -1634.353024188496 -3840.363918477924 -322.8222041993109  -1410.441623959353 -1905.890558448606 -668.4273445766553  2440.8189630786 3918.804650165294 -22.02530477897294  -3285.018822221305 -3230.500136243425 138.7213455294513  -3959.336276102516 -2183.211599484077 243.1948845079781  863.0083743488685 3942.866136862741 361.4040247529525  -312.1608376288945 3554.93955940158 481.933741732477  -108.3442604760844 2677.762269905723 627.5079239232189  -1312.894793314143 1131.337750854673 722.4949885322169  -2183.424411546122 -2459.565942187606 552.8054747333529  1139.241838996511 2993.053909384726 -555.9356303252691  -2699.578369271761 -3634.68265176847 -170.6049508565071  -358.3792051504045 2295.007857566754 -667.8605511157036  -795.6038203193513 983.8990258585482 -747.1477909792128  -535.9240004451278 4244.931881636455 264.4602961315956  -1024.432938215432 -696.3956082508073 749.5012012660713  -348.5070207037317 -3722.895123115679 -442.6896347679789  -2210.523336884213 -1120.079579834475 665.5258219098798  -3399.509280111337 -1805.914231688173 460.7047184377961  -4229.540288050993 -869.014738087403 347.3017804531723  -4622.785385823676 -1128.909020894491 110.270519753405  -4802.001181787148 -146.8482909728848 -68.33375159512104  -1858.739660593088 1951.119314940261 -636.1683761860137  -2814.801295516119 2160.258952109468 -514.8204178804073  -409.6607099322967 -4277.219287229593 -254.9159286853346  -164.2984233867317 3356.158821946389 -523.6364975282875  1920.062730139268 3997.495754687209 203.7488927271842  4160.403854532462 -1182.962938271456 341.5581374683788  242.0269652098631 -1285.466723973877 -743.3682830957323  760.5492598921196 -4433.300479132164 -120.042773040299  -1471.195293423577 2902.2118596863 550.1018566413848  4609.952472031518 1147.0470079619 -118.9671547556159  3078.209948740464 3299.646823719928 201.1928048338658  3630.939411739686 2992.392986336953 -8.95454610706971  -3680.105807768514 -2706.222633851955 -198.0240081684777  -1594.432839023864 4275.403237896823 60.73980077698397  -2676.770879477458 3689.449874597089 142.9510310182801  -262.2675733980927 -2776.347772840547 -613.6928366860758  -1129.915664114523 -506.6275320843853 -750.2133557355081  -2379.072157392519 -813.8688054353372 -663.7868210570355  1111.37773361256 4416.778461362946 -39.84774974754058  130.0408043468697 -4515.292110989802 86.6056961896133  2664.754176616575 -2873.516394027914 424.7487471502379  4617.950574246127 1161.715839666067 105.5908507105312  2117.999474171036 -1217.223518544921 668.1778947028455  -4076.262091806602 -2428.105258634488 19.37372535795471  -864.984604377728 -2996.847769794834 567.7536844235283  2355.45721030847 2199.995732656909 -566.5325406268585  -4137.878352628581 363.0623748640666 399.4164293890254  1083.504681949879 -3383.183777354122 -489.4214835211173  1185.459620163265 2180.891371458266 654.7902855015137  685.4089553522621 4396.327913600532 163.8006700816341  -3000.288706026616 2852.180520553427 -366.8258187761958  4032.636098155644 -2195.660298475803 -204.8807507341031  -74.24738078076608 1180.685973637543 749.2558595466  3655.443639686921 -2135.678283007942 355.4901985847587  -4681.749360516564 1086.629901460864 -17.89234744868035  -2488.200590110584 -3894.166835417935 7.505747923438099  -1519.137415797989 -4247.873479862747 -129.2818866583297  4324.572680870627 2013.26757673885 -5.473043737303906  -1080.216055559324 2237.497189919977 653.8878973817355  1344.504874726362 2032.022938104978 -660.9919445137258  -1634.287816356019 333.6219064364959 -729.5058262005588  -1760.934785288956 3977.912981223779 247.8453211857229  4101.764537677439 -2042.25567437463 215.6681194767181  -327.9868792248004 -4511.579158592163 -78.2586960460853  -3101.806153958142 1182.41397712903 -563.5422036958242  -2122.770962351047 1003.818408009103 -678.094025969799  -1348.534807450071 3656.156593587074 408.403356409116  -3387.062568395969 -3227.039326591901 -43.78831392815816  0.04062640408804515 -0.005383024564268926 -0.007445270006673974  -1544.420597620516 -1777.233883094528 21.49386497811331  2336.073587995768 693.3839571508523 -3.543537477724942  -930.6055101111575 1867.591104009072 171.1602087504121  1741.411387925763 -1324.29513668721 155.8455185206986  -1135.973008399484 193.7762161784388 -345.7501961451984  -2402.866730211069 352.9735956910854 0.2663255933508981  458.9927903574876 2112.230504194493 -148.5737522897942  1623.607805952007 -1041.193601525543 -232.8152886370986  -1263.717946072161 -197.7792879000378 335.4045734472882  1210.723575654637 1571.924981447949 270.55551104483  -447.0108538459972 -1793.495122707646 -293.7298645424887  399.2971851522298 -2590.702237647144 1.428043808506638  964.7829994065016 687.88370128
[...]
<PointData  Vectors="Forcing"> 
<DataArray  type="Float64"  Name="Forcing"  NumberOfComponents="3" format="ascii">-4.6192255167006838e-06 -1.4469930415441614e-06 -2.3427487953196156e-04  -3.0086217609806973e-06 -6.0453873978747967e-07 2.3326225503928795e-04  2.5581633716499698e-05 7.1917413749842523e-07 2.1867900334958412e-04  4.5205793183245672e-05 1.9525520176281093e-06 1.9871557509613304e-04  6.8070327999705498e-05 3.1976089612065127e-08 1.0296456366435576e-04  7.5917135127213155e-05 2.8784183579444132e-06 6.8308305258549555e-05  7.6169423736884077e-05 -1.0768963302367985e-06 1.5430638750173166e-05  7.1320973136984611e-05 -2.4491288514656887e-06 -5.9311012830407210e-05  6.7528736558327752e-05 4.9146541868078811e-07 -1.1231117396825108e-04  4.4814024000145304e-05 8.0067152056260367e-07 -1.9392438861777172e-04  2.3859144325069938e-05 3.7937832157069805e-06 -2.1041535733241559e-04  3.4051524121398398e-05 1.1031087550528320e-05 1.5173294656623112e-04  3.0231631858138100e-05 -1.0783346156915487e-05 -2.0629188205287366e-04  6.7622101285715801e-05 1.3619613685365711e-05 2.9311406405075511e-05  5.4869087504791627e-05 1.2417172661811818e-05 -1.6487280036328478e-04  7.1529918222882927e-05 -1.0528136462815013e-05 -9.7608736223454479e-05  7.0102034840000595e-05 -1.1541786616595810e-05 1.0465722698570654e-04  3.6363775206324768e-05 -1.0129135162287152e-05 1.8592298836326123e-04  1.2482993627064362e-05 9.6151170253555555e-06 -1.7739831481892481e-04  5.1993666929401491e-05 1.4393589299114275e-05 1.6859915637350425e-04  3.6671967092418810e-05 2.3678228028657218e-05 1.6447988361039826e-04  5.2038085861953783e-05 2.7041388788811096e-05 1.1507736561289183e-04  3.7713122027056289e-05 3.2510983568419228e-05 8.9913765341669832e-05  5.0325240190578652e-05 3.2998744448239461e-05 4.2336377138218776e-05  3.4704495566348379e-05 3.5475785068982535e-05 4.2951109096043678e-05  4.4163139500233173e-05 3.9681916244210137e-05 -2.4675647297399471e-05  2.1960155196360977e-05 4.2137543929322759e-05 -2.4838127685607603e-05  4.1698337545462155e-05 2.5996680979811199e-05 -5.5120447096776852e-05  1.3968619652350506e-05 3.7612758325655917e-05 -8.2344809335949153e-05  2.4375991558000207e-05 2.9091432852946052e-05 -1.0832682953398810e-04  -1.3796625535536535e-07 3.6278608516363167e-05 -1.3055923192415025e-04  5.4152298144246683e-05 3.2235235404774672e-05 -6.9687138615847505e-05  4.7757686108045497e-05 -1.4681362754942935e-05 -1.7796073158711921e-04  5.3460688002544821e-05 -2.4537986637653887e-05 -1.0757292921014896e-04  6.8755942184296770e-05 -1.7729839422314243e-05 -6.0713069065331267e-05  9.6911773681921915e-06 2.5647126565506665e-05 -1.9404546144927476e-04  3.1508843571783191e-05 2.3728507547775666e-05 -1.8633701972719195e-04  3.2507313368768494e-05 -2.5213779591930938e-05 -1.7635016736375318e-04  3.2223007551082812e-05 -3.3659011450675678e-05 -1.0641973569766477e-04  6.4419259032410479e-05 1.0827379393013911e-05 -4.2434671521467414e-05  6.0567679378823846e-05 2.6926682853681253e-05 -9.3949693288827705e-06  6.5719393296080950e-05 1.0934440164010420e-05 1.1035604990878931e-04  1.3511212333952717e-05 -1.3794279193785541e-05 2.3670141056963100e-04  4.9913044005572957e-05 -1.2261456119176318e-05 1.7246326287119715e-04  5.2834542554531673e-05 -2.3126159319025134e-05 1.1153447019522774e-04  1.6239818344597962e-05 3.0173408336940199e-05 8.2610204525241913e-05  -1.2480282627008545e-05 4.6088648091658170e-05 -9.3619956635172173e-05  1.5804510654584908e-05 2.2021333029236574e-05 1.7491355147047029e-04  6.2492942464133168e-05 -2.1808068695742344e-05 6.3345662661890581e-05  4.4299109137800079e-05 -3.1977532620334714e-05 6.5068973053821974e-05  3.3578665916616469e-05 -3.3543386625033509e-05 1.2330585856129607e-04  2.2161866962935209e-05 -3.9485506034054482e-05 7.2657288324031458e-05  1.2469680830405222e-05 -3.9908089573589063e-05 1.4196632144134844e-04  3.3287276963868468e-06 -4.2096328773379985e-05 7.1183790209369076e-05  -1.1076264603818213e-05 -3.9889033566296061e-05 1.0871924509111219e-04  -1.9980522364704533e-05 -4.1400823614160532e-05 3.8751114523387588e-05  -3.6614315111634606e-05 -3.7115491521476785e-05 9.0132081459307450e-05  -3.6193843671179283e-06 -4.0814550711008513e-05 -1.0247946627846119e-05  -2.3891838777997358e-05 3.4609270644441042e-05 -1.2011537636432036e-04  -3.9192656535181879e-05 3.0694195700884163e-05 -5.1264373425129620e-05  -3.9981859788000320e-05 -3.8350355114290489e-05 2.3487856444899165e-05  -5.2460271113346687e-05 -2.9929945263488659e-05 6.3370572953767206e-05  -6.3169433445759907e-05 -2.3635588647052438e-05 -1.3682415714258697e-05  -6.4106002946447474e-05 -2.3099110190269818e-05 3.5995623490754526e-05  -6.9541098341449327e-05 -1.7659931282106747e-05 -4.0967555133938820e-05  -6.6789851162942605e-05 -1.2186925152936085e-05 8.5139475572891979e-05  -5.2800672835153962e-05 -2.4324106402074729e-05 -7.7839631601696492e-05  -7.5204991867896390e-05 -5.7885252141256844e-06 6.5696694026118614e-05  -7.1502102898601838e-05 -1.0699120171342024e-05 -8.2317083299495738e-05  -5.9794726796424643e-05 -2.6694520238342497e-06 1.2288404930639534e-04  -6.8591037826492434e-05 4.7967173723225723e-06 8.6809904108236074e-05  -4.2685363571688640e-05 -2.7586651108306597e-05 -1.5651421254723446e-04  -8.3346025466772582e-06 1.9264140081911522e-05 -2.0753794361085185e-04  -4.6756584783204659e-05 3.0964823940261474e-05 -1.0502970539248451e-04  -4.9901002294548627e-05 9.6872949059612376e-06 1.7390804633603678e-04  -5.9422313815219363e-05 1.7071183444600727e-05 1.2218635340576888e-04  -6.8940162293178016e-05 -2.2802819511573917e-06 -5.9310679492787408e-05  -2.7022747482442350e-05 -2.4292759632127075e-05 1.2141886086395934e-04  -5.3135920525470830e-05 -1.0795746265713839e-05 -1.3715849762608730e-04  1.5964294588155510e-05 -2.8307858434999363e-05 -1.5962041567713198e-04  -6.6838607202944744e-05 1.6183588832608040e-05 3.4878298235704958e-05  -4.2454708661403509e-05 -1.6276198329606042e-06 1.9412642917528993e-04  -3.3835172521150337e-05 -1.4958150388791528e-05 -1.8748572310550883e-04  -5.0031572535204368e-05 1.4317882114849832e-05 1.2920867515972266e-04  -4.7192870474898236e-05 2.6308268093101466e-05 1.2059794087920195e-04  -3.3511495772045811e-05 -3.4486159362474797e-05 -1.0723957164401445e-04  -1.8359284586594872e-05 3.8656118107504182e-05 -1.9461892792282508e-05  -3.4326277346375436e-05 -3.3161700025694864e-06 -2.1315411195432351e-04  -5.1609253222871647e-05 3.4195591888548223e-06 -1.6822312978854038e-04  -2.7682847116207412e-05 2.8970140942879992e-05 1.4915264392839360e-04  -2.5545779439800131e-05 3.6750519546205237e-05 9.3788536848045270e-05  -2.3941128401304942e-05 1.8291065438305418e-05 2.1286478761197510e-04  3.8140553180187201e-05 -3.5258987865460759e-05 -1.0240617580229556e-05  -5.1946182407339193e-05 2.9811342135702652e-05 -5.2716822022161841e-05  -6.6374389517494917e-05 1.6396824100032234e-05 -6.8736300260246815e-05  1.2200126368469493e-05 -3.7991068422127619e-05 -1.1684503372363941e-04  -6.2187874667484406e-06 -3.5748622122948830e-05 -1.5120640962827401e-04  -2.1851261045502592e-06 -1.9704849366411988e-05 -1.6184437580124263e-04  -2.1153138391345403e-05 -1.0852737822431659e-05 -2.0881179897117534e-04  -3.4568351836981260e-05 2.2021151992372953e-05 -1.6356233086200418e-04  1.7251407890006691e-05 -2.8718862053629359e-05 1.7666070195405113e-04  -4.1746828204429384e-05 3.2886389039148298e-05 6.6304421022616748e-05  -4.7412088305762336e-06 -2.0711904456298663e-05 1.7391059301204967e-04  -1.1820967417166305e-05 -1.4242899059713545e-05 2.4188102033644634e-04  -8.0064112782626308e-06 -4.4015780961242497e-05 -7.9005494965726954e-05  -1.7170705276325304e-05 2.6138093860695124e-06 -2.3901027038551734e-04  -4.9863484982001255e-06 3.7589468338743575e-05 1.4064259102146063e-04  -3.5639395554324899e-05 7.9473970164845686e-06 -1.7802152011637854e-04  -5.2456773543614810e-05 1.4921881957451513e-05 -1.5689189244848104e-04  -7.0972649378034470e-05 7.7184580986401097e-06 -8.6120079083471307e-05  -8.3108612694266583e-05 9.5911372382801783e-06 -3.4224389856260199e-05  -7.5155010149581677e-05 3.0569430726909225e-06 2.7407872657041457e-05  -2.9574325948245122e-05 -1.7820048942604258e-05 1.9207279551911006e-04  -4.3597516294508112e-05 -2.5761208515766136e-05 1.5307253832740129e-04  -8.2805099006625209e-06 4.3164305020336200e-05 9.5539763987800575e-05  -1.2608573741312544e-06 -2.5203565110347937e-05 1.2730070489948015e-04  2.9245630576284360e-05 -4.1098750684105886e-05 -5.7282847701834663e-05  6.5616640253285451e-05 1.0440160540566489e-05 -8.2885447824029544e-05  5.7006840123158793e-06 1.1290741981726874e-05 2.0624089227210874e-04  1.2858392150454055e-05 4.4248060235344335e-05 4.2435663141233606e-05  -2.1593384028923080e-05 -2.5842582616736832e-05 -1.6888486433300592e-04  6.8121899026287328e-05 -1.1309000495817779e-05 4.4718775355790844e-05  4.4884043021561824e-05 -3.4256495560509111e-05 -6.3254301902002083e-05  5.6848150259503430e-05 -3.1224843825628700e-05 -2.1843101427671506e-05  -5.5364382002905234e-05 2.6223149354286611e-05 5.6436601782509891e-05  -2.1121049185929967e-05 -4.6991014240254989e-05 -1.5235099170042110e-05  -4.1702882762823629e-05 -3.1180859868780213e-05 -3.8010267719697272e-05  -2.8507825894506306e-06 2.7032189373180804e-05 1.8552957446736875e-04  -1.9267104764104002e-05 6.1570108912534588e-06 2.4397053575770758e-04  -4.2260656113430749e-05 8.8542976834313907e-06 1.6154728552683745e-04  1.6611011194979155e-05 -4.6035672319252315e-05 1.4749883761184102e-05  -1.1641073125392159e-06 4.2683768072536980e-05 -3.0921443323676960e-05  4.0075316158897915e-05 2.7678589665778423e-05 -1.2837833462894427e-04  6.8341341135940082e-05 -1.2711059285182612e-05 -3.0283483774382304e-05  3.5089997430318104e-05 1.0257004733101876e-05 -1.8697945991572702e-04  -6.1004837510881800e-05 2.4276488339591356e-05 -4.2797447338124243e-06  -1.6221827131950909e-05 2.2739389235577594e-05 -1.4374713641338211e-04  3.6968415776385234e-05 -2.2117163916552009e-05 1.7301855808116843e-04  -6.2128951879172921e-05 -2.2961031906514800e-06 -1.2683077797447521e-04  1.6242527976691204e-05 3.2634186656124801e-05 1.4287556857371449e-04  2.0035313560216336e-05 -1.8792675502961695e-05 -1.9503337602232168e-04  1.0960185389564835e-05 -4.0078234571160481e-05 -4.9931747385217185e-05  -4.5816274531486963e-05 -3.0201748772764055e-05 1.3611676823398105e-04  5.7737810995724677e-05 2.5840156048950136e-05 4.8936478334701777e-05  -4.0979963518367080e-06 -1.1975628643989764e-05 -2.1800347282954226e-04  5.7106303461190765e-05 1.9190664497563640e-05 -1.1756934339487152e-04  -7.3224505355141999e-05 -1.0904507243106116e-05 9.3684223304585018e-06  -3.9674998713194311e-05 3.8639563549615197e-05 -3.6131178586568105e-06  -2.7098014435021534e-05 2.8297858898204915e-05 3.7321269534866733e-05  6.9044473991477617e-05 -2.0360629704780095e-05 -1.3136549428889305e-05  -1.7932966957550662e-05 -1.4555048782214632e-05 -1.9243728052721897e-04  2.3976481008017666e-05 -2.2237623894976914e-05 2.0568810533500806e-04  -2.0283264891055233e-05 1.0455948228220582e-06 2.3062769724519147e-04  -2.5635403303797616e-05 -3.9356735836968018e-05 -6.2501506604412138e-05  5.7830117690906391e-05 2.3541205696077630e-05 -6.7536132981660513e-05  -4.1500413533918760e-06 4.0436535121989564e-05 6.2116305442539496e-06  -4.4301418025020071e-05 -1.3300433113976531e-05 2.0430348502116556e-04  -3.3559455299235659e-05 -8.3612868856958279e-06 2.1696708072078524e-04  -1.8691822612660279e-05 -3.8739712496384167e-05 -1.2047089292549933e-04  -5.0338378646228404e-05 3.4705351946375818e-05 5.5748574408945731e-06  1.0992010799851012e-06 5.2107732005160730e-06 -8.4870601435606557e-06  -1.9484653335558663e-05 2.0684700705677137e-05 -1.6108588340438660e-05  2.6831318995559935e-05 -7.2049358553887258e-06 -7.6610710645922703e-06  -9.3147276146460781e-06 -2.3953886446050863e-05 -8.6147488077557130e-05  2.1830879767249173e-05 1.6625987084844662e-05 -6.5649262950534415e-05  -1.7086353223691235e-05 -4.3133167996699221e-06 1.4877755313989955e-04  -3.1914556641227760e-05 -4.9306331646334912e-06 -8.7835894867521825e-06  5.4079396263666034e-06 -2.8961401711316463e-05 8.5029416958233716e-05  2.0597286676743531e-05 1.4191764975159799e-05 8.3233882164540548e-05  -1.6589884660266876e-05 4.5225395819059125e-06 -1.4020735743953451e-04  1.4012146311412492e-05 -2.2088951163320374e-05 -1.4318329705404593e-04  -5.1439239890121749e-06 1.9387426078871633e-05 1.0113733861801090e-04  5.4845831329058113e-06 2.6681019733072870e-05 6.6276377139516887e-06  1.1655058468634942e-05 -1.0546790198846744e-05 1.8866446316921377e-04  -4.2855132941743296e-06 2.0598320034623197e-05 -1.1791149642685064e-04  1.2716203939228803e-05 6.9500604497398017e-06 -1.8088695644208436e-04  -2.2981153957317827e-05 -2.1777606579237328e-05 5.5155503116092573e-05  -3.1592543860732950e-05 1.3394596271060966e-05 6.3860765304122580e-05  3.3968252996314854e-05 -3.9274798967116845e-07 -1.1914879925753290e-04  -4.6313237426435129e-06 -1.6145167836505773e-05 -1.8758630537561618e-04  5.5750429186413717e-06 -3.6932491480192459e-05 -7.0779262134416368e-05  2.6515571373058733e-05 -2.2977444359689832e-05 1.1345595737798217e-04  2.9245659052377497e-05 -2.9347648516073269e-05 -2.0604351215006120e-07  -3.0290839618902222e-05 -1.2141433386399985e-05 -1.3069605293064085e-04  3.3511122120514023e-05 1.2446015850808006e-05 1.3190122728693342e-05  -9.0796651173961184e-06 -2.4195251681352684e-05 1.6530358696506561e-04  -3.5761963097504883e-05 1.2615158990109552e-05 -7.8832803546594681e-05  3.7111124956313001e-05 -3.4304571518297811e-06 1.0512416438503865e-04  2.4109655125242509e-05 3.1226775777033273e-05 2.2802461333465918e-05  -3.4004112688451840e-05 -1.0135310104736556e-05 1.1208923569771421e-04  7.6811323613291248e-06 9.8590316900119799e-06 1.7011009335521441e-04  -1.1829777022945596e-05 3.4935222169463778e-05 7.0165207302268250e-05  -1.1771149400836567e-05 3.7830852245778122e-05 -6.8411596154825070e-05  1.4520825489530628e-05 3.2617409539040948e-05 -9.5375503522636591e-05  -3.0947809244849530e-05 -2.8661889271472434e-05 -2.0622967778555048e-05  1.1861622300573839e-05 3.1319462685992983e-05 1.2391772536508289e-04  -7.0426595611924286e-06 -3.7622164573397560e-05 1.7739079733113453e-05  -2.1353458908221157e-05 1.3568251400390785e-05 1.7802083681658917e-04  3.5157399429207763e-05 -1.9696636675751266e-05 -8.5640484930760437e-05  3.5581688137394584e-06 -1.4754636346879260e-05 -7.1606997498847212e-05  1.4028462210135399e-05 -7.2911893876549008e-06 9.1756638929302675e-05  </DataArray> 
</PointData> 
</Piece>
</UnstructuredGrid>
</VTKFile>