<?xml version="1.0"?>
<VTKFile type="UnstructuredGrid"  version="0.1"  >
<UnstructuredGrid>
<Piece  NumberOfPoints="201" NumberOfCells="657">
<Points>
<DataArray  type="Float64"  NumberOfComponents="3"  format="ascii">-8.424361958465067 1.30992470150347 253.3763688137838  -10.47174089711482 -1.182670473570063 -255.3450142041822  2233.95614007577 1.519167327604983 -253.0582577243931  3872.352145732949 -0.3097920772060824 -253.539058074527  4842.908044694543 -1.944689585082034 -223.0871347519369  5344.78477382406 -1.407658653457773 -121.3449679842523  5501.447261413196 -0.7249579841377158 22.53451028733612  5345.215940186885 -1.07739285329205 165.8318545424603  4842.68400337196 -1.605469795109686 265.9397040952664  3874.451801079891 0.7008539505568797 291.9370056346951  2234.401278648412 1.200846850669488 277.5392023073953  2716.381950351554 -528.6123893861148 -244.2502920615482  2731.234458512285 410.1060529640054 275.7646240183921  5299.667073078592 -596.6317455443346 -47.01274834928244  4270.922656057973 -576.8773121005883 267.3487459325635  4995.484276332985 580.7352205570591 204.6529473592767  4985.21085574235 581.1104492995078 -163.6092043478167  2998.375768384315 481.9805354207688 -246.305375321902  1110.653567564098 -440.6609076844494 255.2977986635992  4257.889890117297 -531.769946110027 -230.1333697316116  3093.418200635329 -955.2815226439731 -209.8296450908057  4229.417627417649 -1028.51904856917 -163.951078133257  3002.291048765326 -1345.042323334633 -138.7250394988021  3978.220277253757 -1361.304184309952 -67.55919997172518  2602.291637997472 -1571.016513007491 -50.25335491568714  3570.884942251078 -1504.0439652358 35.1496108396192  1959.647839069924 -1627.804580004407 37.91715416056783  2839.421088104742 -1476.663022991287 125.9231371700709  1059.652410486079 -1534.535452177935 110.4542772742186  1942.917471129145 -1280.251944250462 185.8695471971683  -75.16710361859845 -1324.952476154631 165.3958797400476  4155.256449954712 -1276.519262407875 128.0556934890138  4264.402908942739 532.6589864934781 271.9746117713253  4166.291399376666 1030.045177393583 208.8840104220599  4754.391185377199 1052.027276733827 116.8790922751709  777.641140034473 -984.7147236776269 219.7084813907728  2729.130518102186 -922.3735762833137 241.5234797483257  3115.313647813548 902.5666149070914 247.0801407643204  2874.782142768277 1310.325193250342 178.1189882516953  5309.632013663953 -582.605778414458 90.53560665039535  4754.946835400665 -1134.206020728797 28.43310576348712  5015.312438283485 -583.0694213419375 -157.9397289739274  1097.499092720107 443.2898692756212 -242.7013349715444  4236.158941015969 515.2870362407152 -232.7599534585477  4139.032129173256 1023.082909470374 -172.7009430841754  1321.669382920234 -1496.613221614049 -111.4504913427356  -932.1652048802943 -1548.776349879157 93.33888120366211  1421.971690145926 -903.6156135424709 -215.1393289786627  4729.4154460272 1061.011449518935 -77.90052390544953  3686.813320598683 1398.371973840779 -85.1957370393355  2804.137910587387 1269.349462691557 -159.379332736097  2163.378685080483 1539.559227998235 -83.54741180797112  1005.823861024674 1385.255733902689 -146.7485014320058  276.6749467261624 1592.933018324959 -78.78264734139282  -1033.807187251885 1427.291213187445 -146.8640578800371  -1628.115460968491 1607.893277770891 -71.99160700316519  -2829.115867151337 1449.178747482651 -138.1877479931242  -322.5123552976077 1658.016820590598 3.482732334710515  -2074.969517748714 -1335.575636095657 154.8426457473179  -2694.573699351568 -1535.70229567197 76.094049626654  -3208.074742902498 1548.392692338301 -50.62279783736763  -4142.893601794644 1298.982140381982 -119.0476444260155  -4327.966484666326 1321.489342733757 -10.5366116405308  -4994.21577076504 929.8519118694356 -92.86750779742583  -5045.456434300433 887.5709641242553 44.59498135474318  -4635.951025284658 843.9696876174073 -208.2206733898075  -4253.643498476872 1209.479440052657 107.8430047039884  -5272.774749283529 395.483447129255 -157.0396669567201  -4836.386536323797 709.7402070189909 164.4969412374111  -4790.022430141868 238.6811367674632 -264.6359516995541  -5141.616191105618 -282.2005196413428 -210.330550013564  -3853.322259663215 970.2510066274143 194.2359361718399  -1009.803943628604 -681.7196992443338 230.2450490577162  -3657.776940888954 -1255.711480940337 139.8637144242295  -4448.10914680795 -353.9297125013549 -278.5619796772833  -4584.962875594524 -847.8938824502042 -212.6411549493697  -5357.018489226355 253.3812226432864 96.61954603492705  -2217.884526306523 1153.813462675223 -211.2361934584433  -4286.680107771607 428.5791408042437 239.9723321089339  1461.406594090234 1125.959699198741 207.459391269632  -5164.36515878883 -742.6968033905315 -99.89732077723775  -3831.451285198847 133.7412357862688 -292.4506079823216  -3050.409791862874 689.6898893790305 232.9003224132404  -3589.697606226242 -829.878619754754 -254.0439530177188  -3579.190994723465 -1246.169311055455 -181.9082371694055  -3055.238291903807 1355.429832576282 134.5719936157483  -1565.812932252696 -1644.631140602195 11.29577317334449  -3271.778710837595 120.6649546248669 254.380576878347  -4412.665317580437 -188.7003157104953 243.4329080891127  -2240.744634108114 -1149.123818356166 -212.8861615083787  -2142.797644972252 -1469.048328760912 -139.9925065074555  -2055.045190600678 -711.8970444788649 -254.2372875219149  3044.626642940194 1570.83244592905 6.112339652565817  -3976.959855821604 -1388.180821155268 47.62839853892757  -4718.58306769756 -1001.64242717638 109.5770405891217  1156.714928589321 1451.752136757561 140.3626884512884  -442.024440542785 1289.089898645081 169.1648288315335  -157.44900464236 965.1644887701921 214.603542904566  -1951.872119934825 420.9609889156987 246.7286310690167  -2960.046422942788 -972.1390636487291 209.5077892471069  1599.180712273206 1107.867828343039 -194.2579665402172  -3341.964568424371 -1491.831483176907 -92.94024716858796  -525.4791661404211 826.3955413438882 -230.1336733376866  -1210.975142209552 357.8537568207382 -259.5673924999366  -718.2537137012941 1551.432428367342 94.0264855319262  -1554.662894185059 -256.1154163218267 247.7352652135708  -478.4206273293496 -1351.787183663711 -162.1940801092277  -3109.812325206818 -441.7914885346406 248.5062819506301  -4301.250343191438 -788.6830267916812 201.2193215887808  -5051.456723152677 -411.4423759822843 174.5437741059422  -5309.165377542011 -552.633108322231 44.18771027353205  -5475.486906981729 -72.72537391650799 -64.80415515326824  -2631.367634100979 751.8478106621219 -258.3848336195826  -3696.891163988782 895.7850381866009 -244.6330374082798  -549.6053120135334 -1560.947310168903 -97.89417780182755  -234.6386208078924 1214.113635815974 -186.7529345435654  2452.430029403065 1549.217135791556 96.03420991959111  4996.737308494404 -557.2238219524492 208.1450429568373  353.9511358492255 -459.5491181643235 -243.2371716375709  986.6669959964378 -1631.253955118614 -40.32043708220355  -2049.334717282214 1093.971536523403 196.1854524256968  5309.634729649968 560.1361475217966 -48.79797091381538  3775.192615855442 1396.189549186455 112.9844493558592  4316.900083068816 1328.491108035474 14.92333079284826  -4410.572077025632 -1204.854022155382 -119.7291670316935  -2039.847763562732 1632.92024168797 13.82083346575285  -3312.091230483946 1510.637050851509 48.02216421598738  -382.767416467853 -1000.290279136718 -213.9273302817587  -1705.077291547509 -186.4167766091176 -269.5449336075135  -3334.753462299804 -324.9600730059519 -286.5881234023158  1430.049833920168 1643.960274782012 -8.036464483565346  162.4053313612214 -1648.84863300945 33.10771514785195  3436.92622985446 -1175.054909180055 203.0006829150298  5313.256994202209 567.1784871052989 84.58549115892225  2996.066145115471 -478.306246116381 278.6096164702171  -4778.10585024482 -1122.018044981152 -10.00736772992826  -1234.776659775386 -1097.711554073431 195.0478137069393  3197.087943256029 878.5223862765565 -216.3389004551305  -5005.92764556689 170.223557260587 198.616905981325  1493.454124792728 -1249.875512398473 -171.698046129587  1723.142505848629 806.0222926629792 242.0813022919506  886.7615709674087 1616.113071335139 66.2809192491948  -3783.711737391285 1200.168445843264 -187.0382395298438  4781.84786308859 -1011.128965151641 -88.30244325860119  -109.4752964101558 422.9343694812804 245.616060261312  4480.850569138375 -951.3401838075513 199.5148716421319  -5357.105577777284 534.6649960768773 -33.03770010830135  -3078.622373358323 -1574.507255904511 -12.24244992769995  -1951.32252925154 -1616.101178337956 -61.99410962660074  5016.266729731596 955.6140007729545 17.92526116099868  -1576.55683727014 826.251512893356 223.7155488405075  1954.935287852235 756.713946984333 -227.1814502029835  -2414.94743309962 125.9627974643509 -280.2090986072359  -2276.161086112735 1532.17382141318 88.7206289729731  4854.095205908177 -946.4846212619231 137.674924074062  -436.4237753310063 -1649.015052878999 -32.04564143520431  -4085.890843862118 503.7979198777442 -276.7588387353044  -3011.010497479172 393.9983933775528 -281.8583065571813  -1816.211604141155 1373.71808529832 146.8208318057119  -4066.617552589055 -1397.628993379519 -40.00955122768988  -7.21202716951691 -0.2550088942324307 -0.430795765116428  -2244.952174637646 -671.2065888655736 -4.936350323166772  3302.787151804282 276.0323275068463 16.02399978225204  -1388.97970185778 685.9428885320139 51.90190068531031  2534.391623930622 -506.1573352561213 72.2153767722192  -1733.604359631422 72.24544953146138 -129.7147993048115  -3388.158140869209 142.3171655296983 -17.38300478150194  686.4607397038159 761.4894474212501 -46.595477030747  2395.121657889456 -394.9404898371538 -71.66532259865879  -1909.509515350295 -74.00326062535173 107.4954340946079  1800.360427270298 583.2249295739766 105.2233382143219  -677.6948561636381 -648.3798782229475 -103.0749606290537  585.7209036293723 -934.7692913758767 3.349788497619588  1468.228223136455 252.5746950258116 -123.1814023990636  -571.00070
[...]
<PointData  Vectors="Centrifugal"> 
<DataArray  type="Float64"  Name="Centrifugal"  NumberOfComponents="3" format="ascii">-2.0368028652251688e-07 0.0000000000000000e+00 6.1260154362400474e-06  -2.5318085771124322e-07 0.0000000000000000e+00 -6.1736124244932254e-06  5.4011547572714800e-05 0.0000000000000000e+00 -6.1183242949818033e-06  9.3623920535192650e-05 0.0000000000000000e+00 -6.1299488611576469e-06  1.1708956749590907e-04 0.0000000000000000e+00 -5.3936964899884637e-06  1.2922370851360093e-04 0.0000000000000000e+00 -2.9338219284684343e-06  1.3301142092634030e-04 0.0000000000000000e+00 5.4482885880248603e-07  1.2923413305242646e-04 0.0000000000000000e+00 4.0094050818687147e-06  1.1708415072951163e-04 0.0000000000000000e+00 6.4297658855235939e-06  9.3674685020950945e-05 0.0000000000000000e+00 7.0583164929726131e-06  5.4022309925099933e-05 0.0000000000000000e+00 6.7102131325688067e-06  6.5675413364248278e-05 0.0000000000000000e+00 -5.9053694173621216e-06  6.6034510365620247e-05 0.0000000000000000e+00 6.6673082080009061e-06  1.2813287382957582e-04 0.0000000000000000e+00 -1.1366522593882363e-06  1.0326037207213769e-04 0.0000000000000000e+00 6.4638330405862521e-06  1.2077848432187949e-04 0.0000000000000000e+00 4.9480033219528481e-06  1.2053009835985853e-04 0.0000000000000000e+00 -3.9556668841611182e-06  7.2493328114074605e-05 0.0000000000000000e+00 -5.9550562600405696e-06  2.6852862921140003e-05 0.0000000000000000e+00 6.1724708692179855e-06  1.0294527194775258e-04 0.0000000000000000e+00 -5.5640570664500647e-06  7.4791219625399609e-05 0.0000000000000000e+00 -5.0731631005089969e-06  1.0225688288598121e-04 0.0000000000000000e+00 -3.9639325487795551e-06  7.2587989933421153e-05 0.0000000000000000e+00 -3.3540291754170939e-06  9.6183550744349889e-05 0.0000000000000000e+00 -1.6334147648590906e-06  6.2916991109329188e-05 0.0000000000000000e+00 -1.2150021305364996e-06  8.6335187372364307e-05 0.0000000000000000e+00 8.4983086461228088e-07  4.7379449661936031e-05 0.0000000000000000e+00 9.1674323368587028e-07  6.8650196137663282e-05 0.0000000000000000e+00 3.0445107635533480e-06  2.5619780779388818e-05 0.0000000000000000e+00 2.6705118979658826e-06  4.6974950644371810e-05 0.0000000000000000e+00 4.4938670507731217e-06  -1.8173551038747913e-06 0.0000000000000000e+00 3.9988642868376116e-06  1.0046384859460418e-04 0.0000000000000000e+00 3.0960707136373151e-06  1.0310274067322210e-04 0.0000000000000000e+00 6.5756750630562195e-06  1.0073064644482807e-04 0.0000000000000000e+00 5.0502999874061529e-06  1.1494944823741547e-04 0.0000000000000000e+00 2.8258480725866067e-06  1.8801444073135392e-05 0.0000000000000000e+00 5.3120089879491282e-06  6.5983642277607247e-05 0.0000000000000000e+00 5.8394418235587446e-06  7.5320597514999491e-05 0.0000000000000000e+00 5.9737881768406241e-06  6.9505139192237359e-05 0.0000000000000000e+00 4.3064776586141804e-06  1.2837380150618950e-04 0.0000000000000000e+00 2.1889275881023208e-06  1.1496288248401413e-04 0.0000000000000000e+00 6.8744234366773730e-07  1.2125788035533623e-04 0.0000000000000000e+00 -3.8185929580549498e-06  2.6534820175768048e-05 0.0000000000000000e+00 -5.8679194567053366e-06  1.0241987121578183e-04 0.0000000000000000e+00 -5.6275613803334712e-06  1.0007158454876989e-04 0.0000000000000000e+00 -4.1754826945381660e-06  3.1954704691997951e-05 0.0000000000000000e+00 -2.6945978961594209e-06  -2.2537454700123959e-05 0.0000000000000000e+00 2.2567038502128218e-06  3.4379767002393168e-05 0.0000000000000000e+00 -5.2015381562052014e-06  1.1434559648318183e-04 0.0000000000000000e+00 -1.8834424621764900e-06  8.9138049527901880e-05 0.0000000000000000e+00 -2.0598227160970585e-06  6.7797135960335792e-05 0.0000000000000000e+00 -3.8533990250548365e-06  5.2305158848400025e-05 0.0000000000000000e+00 -2.0199702789556024e-06  2.4318339265901308e-05 0.0000000000000000e+00 -3.5480166884791815e-06  6.6893175650134142e-06 0.0000000000000000e+00 -1.9047700303729881e-06  -2.4994907050133901e-05 0.0000000000000000e+00 -3.5508105582773520e-06  -3.9363814757343253e-05 0.0000000000000000e+00 -1.7405794306936387e-06  -6.8401041321332272e-05 0.0000000000000000e+00 -3.3410387924821989e-06  -7.7975530085179694e-06 0.0000000000000000e+00 8.4203874823105627e-08  -5.0167643316406577e-05 0.0000000000000000e+00 3.7437131271443036e-06  -6.5148143663096793e-05 0.0000000000000000e+00 1.8397663712731396e-06  -7.7563331922544398e-05 0.0000000000000000e+00 -1.2239343488472285e-06  -1.0016494542924987e-04 0.0000000000000000e+00 -2.8782783130725565e-06  -1.0463955110226202e-04 0.0000000000000000e+00 -2.5474927222986948e-07  -1.2074781498706106e-04 0.0000000000000000e+00 -2.2453072042811033e-06  -1.2198668780401183e-04 0.0000000000000000e+00 1.0781966188755813e-06  -1.1208585739666554e-04 0.0000000000000000e+00 -5.0342621346338715e-06  -1.0284260467511249e-04 0.0000000000000000e+00 2.6073777700740487e-06  -1.2748268379229557e-04 0.0000000000000000e+00 -3.7968316792237866e-06  -1.1693189351418076e-04 0.0000000000000000e+00 3.9771301718166862e-06  -1.1581092382198848e-04 0.0000000000000000e+00 -6.3982443693752707e-06  -1.2431159346625435e-04 0.0000000000000000e+00 -5.0852737456463922e-06  -9.3163824842927172e-05 0.0000000000000000e+00 4.6961456935856829e-06  -2.4414567843109617e-05 0.0000000000000000e+00 5.5667571970061447e-06  -8.8436021508686452e-05 0.0000000000000000e+00 3.3815595256335950e-06  -1.0754430424193419e-04 0.0000000000000000e+00 -6.7349413658492519e-06  -1.1085308974145998e-04 0.0000000000000000e+00 -5.1411384719824313e-06  -1.2951948956748486e-04 0.0000000000000000e+00 2.3360222313686804e-06  -5.3622975605657929e-05 0.0000000000000000e+00 -5.1071699696274691e-06  -1.0364134837582923e-04 0.0000000000000000e+00 5.8019389008225490e-06  3.5333205681068811e-05 0.0000000000000000e+00 5.0158562112979195e-06  -1.2486160737575316e-04 0.0000000000000000e+00 -2.4152707373044135e-06  -9.2635038643165799e-05 0.0000000000000000e+00 -7.0707341305146528e-06  -7.3751382416974571e-05 0.0000000000000000e+00 5.6309551553222147e-06  -8.6790031170340398e-05 0.0000000000000000e+00 -6.1421559751444618e-06  -8.6536007227421271e-05 0.0000000000000000e+00 -4.3980923481383976e-06  -7.3868123634488597e-05 0.0000000000000000e+00 3.2536187728759650e-06  -3.7857493333539737e-05 0.0000000000000000e+00 2.7310392499558921e-07  -7.9103536688865703e-05 0.0000000000000000e+00 6.1502947095342224e-06  -1.0668735990263468e-04 0.0000000000000000e+00 5.8856070896599943e-06  -5.4175676609000478e-05 0.0000000000000000e+00 -5.1470621260686193e-06  -5.1807560078683722e-05 0.0000000000000000e+00 -3.3846734004341552e-06  -4.9685922245744151e-05 0.0000000000000000e+00 -6.1468303264369990e-06  7.3611560144928078e-05 0.0000000000000000e+00 1.4778129167475475e-07  -9.6153076863988779e-05 0.0000000000000000e+00 1.1515371619651677e-06  -1.1408369630216149e-04 0.0000000000000000e+00 2.6493024793476498e-06  2.7966512982413464e-05 0.0000000000000000e+00 3.3936234864771267e-06  -1.0687060354671740e-05 0.0000000000000000e+00 4.0899881766499852e-06  -3.8067284544937033e-06 0.0000000000000000e+00 5.1885841708915383e-06  -4.7191451958470312e-05 0.0000000000000000e+00 5.9652895396966056e-06  -7.1566619112224810e-05 0.0000000000000000e+00 5.0653814203311143e-06  3.8664243925300451e-05 0.0000000000000000e+00 -4.6966783335369896e-06  -8.0800457554040594e-05 0.0000000000000000e+00 -2.2470658628041829e-06  -1.2704789709748358e-05 0.0000000000000000e+00 -5.5640644068958607e-06  -2.9278391070205942e-05 0.0000000000000000e+00 -6.2756991137079141e-06  -1.7365602632440549e-05 0.0000000000000000e+00 2.2733284263273675e-06  -3.7587912923824310e-05 0.0000000000000000e+00 5.9896274696190140e-06  -1.1567030349973951e-05 0.0000000000000000e+00 -3.9214526716424817e-06  -7.5187589107915767e-05 0.0000000000000000e+00 6.0082687519727559e-06  -1.0399362071878490e-04 0.0000000000000000e+00 4.8649867226906342e-06  -1.2213175998380000e-04 0.0000000000000000e+00 4.2200378017826852e-06  -1.2836251939610358e-04 0.0000000000000000e+00 1.0683498090017391e-06  -1.3238376360880138e-04 0.0000000000000000e+00 -1.5668045787378926e-06  -6.3619976955199548e-05 0.0000000000000000e+00 -6.2471077577372379e-06  -8.9381706915766311e-05 0.0000000000000000e+00 -5.9146232554891906e-06  -1.3288100389933734e-05 0.0000000000000000e+00 -2.3668396825623753e-06  -5.6729829215589858e-06 0.0000000000000000e+00 -4.5152251772059228e-06  5.9293707170707968e-05 0.0000000000000000e+00 2.3218702483138941e-06  1.2080877954790580e-04 0.0000000000000000e+00 5.0324335773694644e-06  8.5576651525882170e-06 0.0000000000000000e+00 -5.8808746652070121e-06  2.3855173535717569e-05 0.0000000000000000e+00 -9.7484868505261776e-07  -4.9547857090493303e-05 0.0000000000000000e+00 4.7432801865150849e-06  1.2837386717202989e-04 0.0000000000000000e+00 -1.1798145362755867e-06  9.1274842826825578e-05 0.0000000000000000e+00 2.7316852161448458e-06  1.0437199281603604e-04 0.0000000000000000e+00 3.6080931787404882e-07  -1.0663675051072284e-04 0.0000000000000000e+00 -2.8947558481405492e-06  -4.9318485956947837e-05 0.0000000000000000e+00 3.3415365272335176e-07  -8.0078193949854185e-05 0.0000000000000000e+00 1.1610574444888407e-06  -9.2543717188366212e-06 0.0000000000000000e+00 -5.1722350181079069e-06  -4.1224561930947504e-05 0.0000000000000000e+00 -6.5169314398592730e-06  -8.0626110800086022e-05 0.0000000000000000e+00 -6.9289937180209060e-06  3.4575076587453556e-05 0.0000000000000000e+00 -1.9430188264833306e-07  3.9265602056903752e-06 0.0000000000000000e+00 8.0046286480424928e-07  8.3096396226202963e-05 0.0000000000000000e+00 4.9080556443632019e-06  1.2846144459160148e-04 0.0000000000000000e+00 2.0450684763831690e-06  7.2437487122023800e-05 0.0000000000000000e+00 6.7360931059669691e-06  -1.1552281032214525e-04 0.0000000000000000e+00 -2.4195346028787169e-07  -2.9853853038884708e-05 0.0000000000000000e+00 4.7157748892191923e-06  7.7297698215090808e-05 0.0000000000000000e+00 -5.2305408347743023e-06  -1.2103097922277636e-04 0.0000000000000000e+00 4.8020667343056704e-06  3.6108035901803219e-05 0.0000000000000000e+00 -4.1512351206482628e-06  4.1661334240005857e-05 0.0000000000000000e+00 5.8529285963344665e-06  2.1439706857600626e-05 0.0000000000000000e+00 1.6025090909214205e-06  -9.1480814166126470e-05 0.0000000000000000e+00 -4.5221231478341975e-06  1.1561328295994818e-04 0.0000000000000000e+00 -2.1349352072270857e-06  -2.6468425561361279e-06 0.0000000000000000e+00 5.9383903226393176e-06  1.0833591105017580e-04 0.0000000000000000e+00 4.8237773284114660e-06  -1.2952159515377038e-04 0.0000000000000000e+00 -7.9877007389772834e-07  -7.4433493027946143e-05 0.0000000000000000e+00 -2.9599223315732440e-07  -4.7178164211766819e-05 0.0000000000000000e+00 -1.4988646111967406e-06  1.2128095276800512e-04 0.0000000000000000e+00 4.3338858744011943e-07  -3.8117254448163380e-05 0.0000000000000000e+00 5.4088899921487408e-06  4.7265511800884580e-05 0.0000000000000000e+00 -5.4926869355906823e-06  -5.8387470473812200e-05 0.0000000000000000e+00 -6.7747646375988788e-06  -5.5031959034598733e-05 0.0000000000000000e+00 2.1450459060008149e-06  1.1736004545169985e-04 0.0000000000000000e+00 3.3286399754222036e-06  -1.0551650088508369e-05 0.0000000000000000e+00 -7.7478454291273181e-07  -9.8786759386732410e-05 0.0000000000000000e+00 -6.6913458668056731e-06  -7.2798804689613950e-05 0.0000000000000000e+00 -6.8146384166976921e-06  -4.3911515405069413e-05 0.0000000000000000e+00 3.5497654584529137e-06  -9.8320778757209957e-05 0.0000000000000000e+00 -9.6733223214670872e-07  -1.7436902254883946e-07 0.0000000000000000e+00 -1.0415578687647388e-08  -5.4277404557637386e-05 0.0000000000000000e+00 -1.1934877123696078e-07  7.9853244283559428e-05 0.0000000000000000e+00 3.8742077833046670e-07  -3.3582102127520739e-05 0.0000000000000000e+00 1.2548598997489160e-06  6.1275336300548714e-05 0.0000000000000000e+00 1.7459896315967693e-06  -4.1914276051687625e-05 0.0000000000000000e+00 -3.1361837987111651e-06  -8.1917304161231787e-05 0.0000000000000000e+00 -4.2027816610624225e-07  1.6596926964759558e-05 0.0000000000000000e+00 -1.1265636684497201e-06  5.7908132145847997e-05 0.0000000000000000e+00 -1.7326906788421189e-06  -4.6167228701900978e-05 0.0000000000000000e+00 2.5989743703086376e-06  4.3528273058326364e-05 0.0000000000000000e+00 2.5440406979207513e-06  -1.6384989529035671e-05 0.0000000000000000e+00 -2.4920982286532375e-06  1.4161286286327175e-05 0.0000000000000000e+00 8.0989620857810234e-08  3.5498135840235224e-05 0.0000000000000000e+00 -2.9782223815392753e-06  -1.3805388251305172e-05 0.0000000000000000e+00 2.2932201979650647e-06  3.1468785136213433e-05 0.0000000000000000e+00 3.5209795555072943e-06  -5.6873603374771996e-05 0.0000000000000000e+00 -1.6069529657660763e-06  -8.1512506999210533e-05 0.0000000000000000e+00 -2.5468098475142974e-06  8.3327218468141740e-05 0.0000000000000000e+00 3.1334459146258530e-06  -1.2235955366307646e-05 0.0000000000000000e+00 3.4285846894410529e-06  1.7465800977952895e-05 0.0000000000000000e+00 1.0296982375795244e-06  7.0820757452342726e-05 0.0000000000000000e+00 -1.8373691248626986e-06  6.9275734131867442e-05 0.0000000000000000e+00 5.5676848387635525e-07  -8.0612177059388195e-05 0.0000000000000000e+00 2.1607888522723011e-06  9.5154779873522129e-05 0.0000000000000000e+00 2.7752325426127403e-08  -2.1254281492649340e-05 0.0000000000000000e+00 -3.3082180762260429e-06  -9.2321930251695390e-05 0.0000000000000000e+00 1.3190000053744615e-06  9.1527313092688555e-05 0.0000000000000000e+00 -2.1923241100879878e-06  6.8325072038142589e-05 0.0000000000000000e+00 -2.5127530039592576e-07  -8.7420469706668810e-05 0.0000000000000000e+00 -3.0987051891971157e-06  2.2478350962867018e-05 0.0000000000000000e+00 -3.6589268307204218e-06  -3.2900836654413373e-05 0.0000000000000000e+00 -1.3101691925714432e-06  -3.1607804617398599e-05 0.0000000000000000e+00 8.6914414141651320e-07  3.7753070053725315e-05 0.0000000000000000e+00 2.2854295329226651e-06  -7.7919203918918044e-05 0.0000000000000000e+00 6.0821142678172036e-07  3.2222571215053967e-05 0.0000000000000000e+00 -1.9136099695000902e-06  -2.2753113046766898e-05 0.0000000000000000e+00 -6.3455479179948988e-07  -5.6503130145170917e-05 0.0000000000000000e+00 -4.1661000858198855e-06  8.9571714194497433e-05 0.0000000000000000e+00 2.5099195897318764e-06  1.2650315729541306e-05 0.0000000000000000e+00 5.6753658283864997e-07  3.7979621490252243e-05 0.0000000000000000e+00 -9.4999151035574793e-07  </DataArray> 
</PointData> 
</Piece>
</UnstructuredGrid>
</VTKFile>