<?xml version="1.0"?>
<VTKFile type="UnstructuredGrid"  version="0.1"  >
<UnstructuredGrid>
<Piece  NumberOfPoints="201" NumberOfCells="657">
<Points>
<DataArray  type="Float64"  NumberOfComponents="3"  format="ascii">-0.1373063194245214 6.036044787850752 2080.727456688645  -0.6256746419425422 9.271021990247128 -2080.296836127627  109.4583371002587 12.66231190174494 -1974.726903457193  200.4392578168926 13.37524491034108 -1673.286761888889  260.6397075450935 -9.906521850409785 -1208.985504539469  291.6252821170598 -25.65817298194585 -633.9584092471298  304.8109358507032 -27.0018029452649 -0.3164339833908522  291.7495130252853 -3.395149632422519 633.1878588734105  259.9374546515103 9.950200406789726 1202.4486734605  199.5359075630397 8.307930056736781 1666.317116901095  108.7994818563526 7.275341492158958 1971.921305780131  124.6762283745266 -2954.410782580976 -1883.742400880584  159.2999019481367 2311.897074387388 1891.142530966463  294.5305980207445 -3041.545992093457 -317.3059506612192  225.5874526396758 -3039.409796398447 1445.03854333516  317.1608049761517 2982.641952536615 896.4686417979498  318.3775276409165 2993.687352252277 -916.0127101355613  183.5842200704599 2685.983059795938 -1843.782160165831  37.36157742248896 -2588.448664833936 2049.353334169181  221.0162494592425 -2820.921765483547 -1455.436201773561  166.1297806274313 -5058.420746842121 -1660.470109225943  251.5003925988094 -5210.980498057449 -1138.001312811236  199.2676018244198 -6784.100326815652 -1226.007637784624  280.5212731723256 -6692.444282885222 -593.5710440642644  200.1576198480645 -7779.479067908674 -557.7434134563414  275.7453703887111 -7339.997293052824 133.5704278416494  149.9546883229403 -8106.810420109492 260.5738110014846  208.7817581651517 -7353.500303309182 928.4300091501116  51.45669014071109 -7830.007107042501 1039.815040724075  110.7570335056356 -6680.021476958475 1557.062818581066  -55.34019744360712 -6993.4075283138 1604.931436953498  274.7464723421477 -6323.726146251345 712.8702890224822  262.3588231351209 2818.137207334952 1453.94487781873  329.4423995552231 5226.176077191181 1186.204161884441  375.807864174076 5241.930703355588 530.2118816145893  12.61217778290202 -5461.911421406811 1918.457905549444  136.6231265987058 -4965.298871115927 1758.760793749188  238.7409082025453 4803.074518196275 1694.266367130182  278.8871987294366 6655.416883523796 1330.571127657878  293.8889786328176 -2960.130881030353 316.8668894784298  296.77336632408 -5616.321045292492 40.47108099412725  272.902896894671 -2989.624509188934 -892.8758328473011  77.19987502298171 2601.187603426995 -2046.233880449749  262.3520649626998 2755.899785008023 -1475.075970089998  325.0960855483917 5186.525789885987 -1208.860589181583  72.25644981816458 -7658.621294282928 -1152.540407143371  -141.6075621953492 -7899.077843373761 991.2994738438867  52.84470382175917 -5004.153215962682 -1933.187619593335  373.751835373631 5296.533841231762 -551.5923368392149  362.250274826754 6865.894022886164 -745.1478604466338  266.1091053156328 6501.982324959981 -1419.000776575885  256.6376793161386 7711.077023440853 -869.6467361631071  133.0767668576569 7210.13862683286 -1464.417592581903  81.37738129557519 8079.646941418891 -819.8023964020095  -42.47132018378831 7383.601572633817 -1369.967391099175  -110.4017945557802 8038.591294625359 -615.2412638212686  -200.6665183666813 7225.889018652252 -1030.224655883456  18.94895394644886 8345.789944069198 55.03336519051808  -220.075075064534 -6882.486413921242 1458.9266454975  -308.7643493051656 -7593.343810978608 762.19293483845  -252.3334899291983 7563.287759546429 -286.3480216564552  -285.3342210674616 6396.997760649097 -655.5309273863315  -306.3313152918616 6457.18591105234 57.2330936961615  -293.4463039832709 4647.610095914309 -364.0548899430912  -294.5249653424621 4442.441948578502 337.3376826842011  -264.397604970375 4292.837650271151 -1034.563755058758  -278.9865837172923 5993.55995871763 798.6483738246716  -279.9994059017279 2041.956756978178 -612.1894909202711  -267.9645465519995 3646.333581580366 964.137745696701  -251.3114836065536 1257.759733802654 -1216.474115197557  -300.6461719709288 -1457.674737319028 -874.3356577196773  -223.2122827423875 5000.808974104484 1410.946188753634  -86.25949992088673 -3886.089580911808 2028.455165715965  -328.6018207204187 -6309.773554024024 1123.375945204141  -259.3653260582458 -1869.080549349217 -1409.751378105922  -328.8367295552588 -4316.872955959176 -1074.07521476964  -287.6557377230478 1287.674463031711 518.2353174274074  -118.4162635010335 6064.179361601646 -1683.155882699981  -219.4355019512859 2263.057717830372 1468.089385019684  148.980881711357 6052.006178775699 1789.408249899684  -352.7418459067055 -3756.892483102244 -370.5579103309651  -194.6619250531433 733.6821327681506 -1677.388138656733  -146.8975449567838 3800.642653466253 1782.120539634895  -259.4987322161659 -4375.575080518537 -1597.464494770186  -321.2506032389248 -6269.600331322617 -1184.368968673815  -205.7966500269339 6815.038010186461 1190.399488112542  -214.2048396869764 -8215.124462028385 190.1475558948849  -162.5778399827833 660.3267242380887 1817.356130181361  -243.7698795691846 -1002.72122127703 1449.169880140424  -205.6678690261418 -6035.681279588536 -1678.395874848525  -244.258144853144 -7417.467542539897 -1153.344571477519  -148.8439260934095 -3984.966695446576 -1940.587524489064  343.716149937693 7698.418937049591 -80.88491608310707  -380.6585641469189 -6830.378190921001 462.6876818986782  -360.6274236431748 -5002.627430099378 718.5768497886817  151.489548626993 7478.852851945939 1305.271942330334  11.33839197022398 6827.106105005491 1655.80666011282  29.93157047582323 5358.990497575051 1962.121033271682  -81.37874561342592 2426.952715547461 1983.676194358495  -230.1576757494508 -5150.478739016138 1678.124780300302  156.0444524593609 5952.637649192564 -1794.312069273888  -350.5309512610413 -7346.23015986312 -598.6620797402078  2.625793261394247 4656.347256769849 -2009.129831330319  -45.83950687231426 2101.617815329768 -2042.526950605021  -18.98154716825345 7918.990491229553 993.3693656909138  -89.35673238945813 -1522.30846280861 2020.956646699055  -89.00013681786182 -7108.768330073906 -1550.037987055336  -188.6010696211711 -2456.236984374304 1828.932401906428  -299.1505090986459 -4068.164367094109 1321.449326621147  -306.23015723811 -2143.625630783044 928.8684889195365  -337.736247222191 -2830.914586733751 301.6578994704303  -306.8510403867875 -404.5062492470207 -177.8272034601094  -125.0171181127218 4123.286328959003 -1850.738968205842  -202.4063247717355 4668.082086804708 -1524.999925277618  -104.1288192194551 -7969.728106449274 -961.8292184106763  27.93499066393044 6504.218074213605 -1759.912959854795  284.065817067631 7704.730552753515 745.3588458584607  273.5828682643656 -2852.547985653907 933.2978932709843  -1.088008527145958 -2698.092070950778 -2067.475060484795  51.42937675374108 -8237.207682539321 -463.7331224548507  -104.1188647768114 5826.301563580373 1759.549200014399  338.0487150984897 2867.898841013524 -319.6474317217181  368.7819478873786 6846.718983855912 677.5531138155758  399.263430277638 6488.564614821738 -28.49670444087234  -377.6657111616382 -5949.800157229003 -617.9722461107483  -155.0548229290043 8079.16179111265 230.0745217112833  -255.4884255859188 7384.5532603579 504.3993211179848  -64.81755166791069 -5524.713846587351 -1930.302359694848  -93.41283773080399 -1094.553588591138 -2019.664321141463  -189.3677990807653 -1804.02582402206 -1791.538672902684  200.2583038520401 8229.791356238216 -156.0125926531748  -32.97357467840534 -8326.565120584319 335.0421861683808  207.2987561786425 -6008.461869382354 1343.411634848534  338.1482130009903 2898.269674229006 283.212558427796  143.9859689087402 -2645.877030164885 1848.925821406719  -385.5376099948897 -5563.393202075722 58.9274446775482  -127.433683054605 -5956.987909265779 1820.168170418469  239.7180659938786 4658.186430495246 -1687.689700007071  -267.0265293637303 891.8777023055253 1045.155502449284  69.94518892204884 -6596.723755623355 -1645.683597993178  139.6804825689167 4510.100626724811 1947.971625801063  141.4611222918712 8150.248600657182 627.0225394852625  -241.9634577774767 6028.181928541203 -1169.131190782391  287.0086646183698 -5050.256818475932 -605.5661954136539  12.89049328514497 2504.015986461955 2064.639797472634  261.6962969609874 -4823.193498724641 1044.130422298941  -294.6253083359706 2731.071349758253 -49.31397968788868  -348.7007814430758 -7695.686589561918 25.66755467941914  -249.0801089761532 -8043.572222469241 -488.493123078309  375.2691342420389 4764.81006308434 -16.55467804921883  -61.21458748411598 4612.228868111094 1954.509447476585  149.2203593596995 4219.279235073824 -1941.584935369287  -116.3525004725725 745.205843228029 -1951.13878904173  -162.9789686110747 7643.472614682564 903.0359218541796  287.5656184162651 -4750.593560036435 626.5067132926333  -95.76394024256393 -8329.141259643993 -304.8946979197243  -209.4459710162633 2688.131590196457 -1544.981940477188  -143.1887733257291 2205.485538784444 -1850.008750221975  -104.3179725614148 7073.875634499572 1423.287796478552  -393.0783852074379 -6828.730373393657 -148.2924932925542  -1.647710532493176 -18.2019420928073 -1.555535037415193  -148.7579934959085 -4301.161922365533 63.97974936530988  164.1464259849691 1794.363854974184 -14.89084702710609  -35.5645736274372 4473.839460855888 495.6735631012844  96.02198358826894 -3280.707731711773 431.3514762073927  -70.28072016203011 460.9654722874628 -914.2895455771412  -141.6611563072645 919.4230693469451 -1.07319619332923  74.42888634281243 4969.273016902191 -441.7874365810998  90.12006887636556 -2599.30912955314 -637.8171677974763  -85.5213308366634 -502.9059886029332 888.003741888848  117.2111115525808 3794.256258045959 764.9464001651531  -66.65534384184875 -4242.980277284644 -846.3977834895591  -9.88331793672047 -5890.321497662854 4.620410027984986  78.05690392145453 1694.312986482863 -1028.745326473048  -65.
[...]
<PointData  Vectors="Centrifugal"> 
<DataArray  type="Float64"  Name="Centrifugal"  NumberOfComponents="3" format="ascii">-3.3197280244647346e-09 1.4593667009007643e-07 0.0000000000000000e+00  -1.5127269099907791e-08 2.2415043710612076e-07 0.0000000000000000e+00  2.6464325218669449e-06 3.0614345975412885e-07 0.0000000000000000e+00  4.8461267053566897e-06 3.2338042086499774e-07 0.0000000000000000e+00  6.3016250457508118e-06 -2.3951525574062275e-07 0.0000000000000000e+00  7.0507797874392052e-06 -6.2035131566926193e-07 0.0000000000000000e+00  7.3695763614345582e-06 -6.5283697301140519e-07 0.0000000000000000e+00  7.0537833842821594e-06 -8.2086341176721147e-08 0.0000000000000000e+00  6.2846463034696212e-06 2.4057129546478172e-07 0.0000000000000000e+00  4.8242859250765830e-06 2.0086525041404124e-07 0.0000000000000000e+00  2.6305030276788653e-06 1.7589980665339112e-07 0.0000000000000000e+00  3.0143635854054851e-06 -7.1430363233228596e-05 0.0000000000000000e+00  3.8514785845834758e-06 5.5895967058806805e-05 0.0000000000000000e+00  7.1210231576336756e-06 -7.3537077608418658e-05 0.0000000000000000e+00  5.4541480074188605e-06 -7.3485429667201089e-05 0.0000000000000000e+00  7.6681657257554354e-06 7.2112923267303935e-05 0.0000000000000000e+00  7.6975830777400257e-06 7.2379973779845299e-05 0.0000000000000000e+00  4.4386134794925086e-06 6.4940443194535269e-05 0.0000000000000000e+00  9.0331075894712329e-07 -6.2582302173339144e-05 0.0000000000000000e+00  5.3436275931567625e-06 -6.8202928160511267e-05 0.0000000000000000e+00  4.0166081995230433e-06 -1.2230013289410603e-04 0.0000000000000000e+00  6.0806589600037154e-06 -1.2598865126410802e-04 0.0000000000000000e+00  4.8177989543140240e-06 -1.6402280732666735e-04 0.0000000000000000e+00  6.7823122483468513e-06 -1.6180679032961576e-04 0.0000000000000000e+00  4.8393173941626309e-06 -1.8808860936411976e-04 0.0000000000000000e+00  6.6668427027401547e-06 -1.7746302439217734e-04 0.0000000000000000e+00  3.6255343767990913e-06 -1.9600267382772923e-04 0.0000000000000000e+00  5.0478277801235835e-06 -1.7778949386387016e-04 0.0000000000000000e+00  1.2440958072593128e-06 -1.8931025268131596e-04 0.0000000000000000e+00  2.6778317966437346e-06 -1.6150643753339822e-04 0.0000000000000000e+00  -1.3379894319713173e-06 -1.6908333903014412e-04 0.0000000000000000e+00  6.6426918125797105e-06 -1.5289209553303511e-04 0.0000000000000000e+00  6.3431890191019783e-06 6.8135604414886478e-05 0.0000000000000000e+00  7.9651043800003816e-06 1.2635604287513985e-04 0.0000000000000000e+00  9.0861069158457200e-06 1.2673695086402263e-04 0.0000000000000000e+00  3.0493134045758071e-07 -1.3205554186272530e-04 0.0000000000000000e+00  3.3032101075935815e-06 -1.2004867570091529e-04 0.0000000000000000e+00  5.7721661090882144e-06 1.1612649110740959e-04 0.0000000000000000e+00  6.7428043601094297e-06 1.6091155917165960e-04 0.0000000000000000e+00  7.1055103839167472e-06 -7.1568661100396584e-05 0.0000000000000000e+00  7.1752477615715764e-06 -1.3578878558966076e-04 0.0000000000000000e+00  6.5981187069582571e-06 -7.2281744258924938e-05 0.0000000000000000e+00  1.8665025009264459e-06 6.2890298277426320e-05 0.0000000000000000e+00  6.3430256231674436e-06 6.6630857102927183e-05 0.0000000000000000e+00  7.8600212310814470e-06 1.2539739675821807e-04 0.0000000000000000e+00  1.7469826765072044e-06 -1.8516656659317367e-04 0.0000000000000000e+00  -3.4237214621012518e-06 -1.9098021266589801e-04 0.0000000000000000e+00  1.2776545533871418e-06 -1.2098807789304014e-04 0.0000000000000000e+00  9.0363972123408165e-06 1.2805712001421859e-04 0.0000000000000000e+00  8.7583178563973966e-06 1.6600037708607661e-04 0.0000000000000000e+00  6.4338615890643176e-06 1.5720189011840478e-04 0.0000000000000000e+00  6.2048658774762530e-06 1.8643481669891517e-04 0.0000000000000000e+00  3.2174678790746636e-06 1.7432336224642355e-04 0.0000000000000000e+00  1.9675042953349247e-06 1.9534592793410145e-04 0.0000000000000000e+00  -1.0268517315227489e-06 1.7851726828654624e-04 0.0000000000000000e+00  -2.6692429953259374e-06 1.9435330369223046e-04 0.0000000000000000e+00  -4.8516213047251013e-06 1.7470416785929195e-04 0.0000000000000000e+00  4.5813895321020024e-07 2.0178060907708286e-04 0.0000000000000000e+00  -5.3208723184751905e-06 -1.6640154016249478e-04 0.0000000000000000e+00  -7.4651601444102786e-06 -1.8358831810759703e-04 0.0000000000000000e+00  -6.1008011979312205e-06 1.8286163694199403e-04 0.0000000000000000e+00  -6.8986774533478654e-06 1.5466362238433638e-04 0.0000000000000000e+00  -7.4063353850525936e-06 1.5611882335739955e-04 0.0000000000000000e+00  -7.0948076031126579e-06 1.1236774495778214e-04 0.0000000000000000e+00  -7.1208869733704854e-06 1.0740728537156213e-04 0.0000000000000000e+00  -6.3924817335424102e-06 1.0379022256081408e-04 0.0000000000000000e+00  -6.7452072439007767e-06 1.4490949174553470e-04 0.0000000000000000e+00  -6.7696947853596254e-06 4.9369476214162567e-05 0.0000000000000000e+00  -6.4787215801843646e-06 8.8159349315083377e-05 0.0000000000000000e+00  -6.0760916066707201e-06 3.0409527062166514e-05 0.0000000000000000e+00  -7.2688826466448207e-06 -3.5242978592041994e-05 0.0000000000000000e+00  -5.3967222596168872e-06 1.2090722237623808e-04 0.0000000000000000e+00  -2.0855418779249362e-06 -9.3956057823109561e-05 0.0000000000000000e+00  -7.9447812577554075e-06 -1.5255475627854858e-04 0.0000000000000000e+00  -6.2708136457112769e-06 -4.5189756055366043e-05 0.0000000000000000e+00  -7.9504607737855598e-06 -1.0437133694945603e-04 0.0000000000000000e+00  -6.9548059981454379e-06 3.1132791405586165e-05 0.0000000000000000e+00  -2.8630130801280027e-06 1.4661689466629932e-04 0.0000000000000000e+00  -5.3054090186311450e-06 5.4715151919790523e-05 0.0000000000000000e+00  3.6019901356277352e-06 1.4632257714075831e-04 0.0000000000000000e+00  -8.5284275054885700e-06 -9.0832390769215814e-05 0.0000000000000000e+00  -4.7064450536828782e-06 1.7738623738563513e-05 0.0000000000000000e+00  -3.5516201931696068e-06 9.1890161942758129e-05 0.0000000000000000e+00  -6.2740390774535224e-06 -1.0579060948412200e-04 0.0000000000000000e+00  -7.7670469568905620e-06 -1.5158346687399758e-04 0.0000000000000000e+00  -4.9756552305713992e-06 1.6477080417727488e-04 0.0000000000000000e+00  -5.1789445108203806e-06 -1.9862144011545798e-04 0.0000000000000000e+00  -3.9307310385249873e-06 1.5965070951890112e-05 0.0000000000000000e+00  -5.8937542286301965e-06 -2.4243325092021762e-05 0.0000000000000000e+00  -4.9725416237167264e-06 -1.4592788135723355e-04 0.0000000000000000e+00  -5.9055592784875282e-06 -1.7933606388054383e-04 0.0000000000000000e+00  -3.5986788866996965e-06 -9.6346662490650909e-05 0.0000000000000000e+00  8.3102084462770170e-06 1.8612877540157929e-04 0.0000000000000000e+00  -9.2033848729390216e-06 -1.6514169189823502e-04 0.0000000000000000e+00  -8.7190813188786691e-06 -1.2095118815547396e-04 0.0000000000000000e+00  3.6626435119529191e-06 1.8082020920451479e-04 0.0000000000000000e+00  2.7413434234974526e-07 1.6506258093409526e-04 0.0000000000000000e+00  7.2367152321359406e-07 1.2956716786377201e-04 0.0000000000000000e+00  -1.9675372811743433e-06 5.8677728582475649e-05 0.0000000000000000e+00  -5.5646447259905919e-06 -1.2452586800795060e-04 0.0000000000000000e+00  3.7727698481945838e-06 1.4392009126982800e-04 0.0000000000000000e+00  -8.4749735279505306e-06 -1.7761371973314629e-04 0.0000000000000000e+00  6.3485202376936273e-08 1.1257898794985935e-04 0.0000000000000000e+00  -1.1082861752423715e-06 5.0811933401923636e-05 0.0000000000000000e+00  -4.5892697689538284e-07 1.9146165136009043e-04 0.0000000000000000e+00  -2.1604253171379981e-06 -3.6805662602017353e-05 0.0000000000000000e+00  -2.1518037160537212e-06 -1.7187247858419107e-04 0.0000000000000000e+00  -4.5599085234338044e-06 -5.9385749948919969e-05 0.0000000000000000e+00  -7.2327212086783972e-06 -9.8358176915449178e-05 0.0000000000000000e+00  -7.4038896329026009e-06 -5.1827578732679269e-05 0.0000000000000000e+00  -8.1656291529755932e-06 -6.8444529922810301e-05 0.0000000000000000e+00  -7.4189010555175460e-06 -9.7799630586860764e-06 0.0000000000000000e+00  -3.0226054581895056e-06 9.9690889949585206e-05 0.0000000000000000e+00  -4.8936855309326511e-06 1.1286270718647085e-04 0.0000000000000000e+00  -2.5175779291582111e-06 -1.9268836170995162e-04 0.0000000000000000e+00  6.7539914957195784e-07 1.5725594501903928e-04 0.0000000000000000e+00  6.8680105741959871e-06 1.8628137469649719e-04 0.0000000000000000e+00  6.6145587369675797e-06 -6.8967572132088469e-05 0.0000000000000000e+00  -2.6305361716486597e-08 -6.5233209207401827e-05 0.0000000000000000e+00  1.2434354369533600e-06 -1.9915535790094533e-04 0.0000000000000000e+00  -2.5173372552959200e-06 1.4086559643182144e-04 0.0000000000000000e+00  8.1731838552649031e-06 6.9338717939145219e-05 0.0000000000000000e+00  8.9162375952475204e-06 1.6553677195336531e-04 0.0000000000000000e+00  9.6532046317411417e-06 1.5687748299310448e-04 0.0000000000000000e+00  -9.1310250720939129e-06 -1.4385148771516189e-04 0.0000000000000000e+00  -3.7488430478875694e-06 1.9533419819672045e-04 0.0000000000000000e+00  -6.1770797578612426e-06 1.7854027774759246e-04 0.0000000000000000e+00  -1.5671284734083993e-06 -1.3357394954963971e-04 0.0000000000000000e+00  -2.2584919365643772e-06 -2.6463605153443544e-05 0.0000000000000000e+00  -4.5784461499965458e-06 -4.3616893308061438e-05 0.0000000000000000e+00  4.8417516849586723e-06 1.9897604942946658e-04 0.0000000000000000e+00  -7.9721967922107411e-07 -2.0131580027909324e-04 0.0000000000000000e+00  5.0119724511366533e-06 -1.4526978317756087e-04 0.0000000000000000e+00  8.1755894690537594e-06 7.0073009751600099e-05 0.0000000000000000e+00  3.4812254681303129e-06 -6.3970778352639027e-05 0.0000000000000000e+00  -9.3213481633544913e-06 -1.3450912093083422e-04 0.0000000000000000e+00  -3.0810320360347851e-06 -1.4402526982489601e-04 0.0000000000000000e+00  5.7957913735174791e-06 1.1262345463270152e-04 0.0000000000000000e+00  -6.4560426389646396e-06 2.1563402290201019e-05 0.0000000000000000e+00  1.6911020906693502e-06 -1.5949250415400927e-04 0.0000000000000000e+00  3.3771294314645429e-06 1.0904310527323768e-04 0.0000000000000000e+00  3.4201809065498839e-06 1.9705290185729300e-04 0.0000000000000000e+00  -5.8500794067351206e-06 1.4574656555224014e-04 0.0000000000000000e+00  6.9391613670135167e-06 -1.2210274924927077e-04 0.0000000000000000e+00  3.1166032260720645e-07 6.0540928333105571e-05 0.0000000000000000e+00  6.3271707708783586e-06 -1.1661291841653564e-04 0.0000000000000000e+00  -7.1233130193748180e-06 6.6030566798389788e-05 0.0000000000000000e+00  -8.4307245373746164e-06 -1.8606271398091470e-04 0.0000000000000000e+00  -6.0221424736325419e-06 -1.9447373023793085e-04 0.0000000000000000e+00  9.0730817553105405e-06 1.1520135099362416e-04 0.0000000000000000e+00  -1.4800176891253998e-06 1.1151231416646414e-04 0.0000000000000000e+00  3.6077801142956413e-06 1.0201176157380979e-04 0.0000000000000000e+00  -2.8131163820725358e-06 1.8017238624752330e-05 0.0000000000000000e+00  -3.9404293390426585e-06 1.8480030889714218e-04 0.0000000000000000e+00  6.9526271356609762e-06 -1.1485763102664939e-04 0.0000000000000000e+00  -2.3153357943663182e-06 -2.0137808496538536e-04 0.0000000000000000e+00  -5.0638868080349413e-06 6.4992389358498639e-05 0.0000000000000000e+00  -3.4619512458731573e-06 5.3323198679697495e-05 0.0000000000000000e+00  -2.5221511902641535e-06 1.7102885929680007e-04 0.0000000000000000e+00  -9.5036655024558119e-06 -1.6510185173612398e-04 0.0000000000000000e+00  -3.9837575239409319e-08 -4.4007804970963962e-07 0.0000000000000000e+00  -3.5966012485157083e-06 -1.0399148292137697e-04 0.0000000000000000e+00  3.9686555778474538e-06 4.3383290735694926e-05 0.0000000000000000e+00  -8.5986364097394098e-07 1.0816639975058362e-04 0.0000000000000000e+00  2.3215746457888572e-06 -7.9319418382812841e-05 0.0000000000000000e+00  -1.6992144081877060e-06 1.1145007768589739e-05 0.0000000000000000e+00  -3.4250172354933012e-06 2.2229381301908417e-05 0.0000000000000000e+00  1.7995068315677204e-06 1.2014476074052090e-04 0.0000000000000000e+00  2.1788809099927325e-06 -6.2844881413960722e-05 0.0000000000000000e+00  -2.0676947707709491e-06 -1.2159025972241920e-05 0.0000000000000000e+00  2.8338754795151326e-06 9.1735754658804362e-05 0.0000000000000000e+00  -1.6115617537448916e-06 -1.0258479429630954e-04 0.0000000000000000e+00  -2.3895424235918166e-07 -1.4241344047999607e-04 0.0000000000000000e+00  1.8872233451232746e-06 4.0964307593516111e-05 0.0000000000000000e+00  -1.5763456941412453e-06 -1.1307786890916877e-04 0.0000000000000000e+00  1.2118016257672777e-06 -1.4614557556947859e-05 0.0000000000000000e+00  -2.1445012287142916e-06 1.1334396534997512e-04 0.0000000000000000e+00  -4.3773805281059362e-06 -5.7001202056639661e-05 0.0000000000000000e+00  3.8586460129681343e-06 7.5488877917958062e-06 0.0000000000000000e+00  -1.9124275449474455e-08 7.0154757403723540e-05 0.0000000000000000e+00  2.2178474513286010e-06 1.4883049847278751e-04 0.0000000000000000e+00  4.4697864328308223e-06 9.5324396075998236e-05 0.0000000000000000e+00  5.1318251848603335e-06 1.2945654553478704e-04 0.0000000000000000e+00  -3.4007953837895694e-06 6.2506661317929835e-05 0.0000000000000000e+00  4.2680732832637623e-06 -5.3168793224675888e-05 0.0000000000000000e+00  -2.9116112762544387e-07 1.0172081228098573e-04 0.0000000000000000e+00  -5.0635967697285361e-06 -5.8501079267250676e-05 0.0000000000000000e+00  4.3152064113792500e-06 9.6214084840367737e-06 0.0000000000000000e+00  2.9951842376309417e-06 -1.2737531954667750e-04 0.0000000000000000e+00  -3.7832052057002762e-06 5.0789129540858202e-05 0.0000000000000000e+00  6.2748547652033675e-07 -5.1144174227226027e-05 0.0000000000000000e+00  -3.2406285724846594e-06 -1.5145751904237277e-04 0.0000000000000000e+00  -3.2764496710647120e-06 -1.5736859363780473e-04 0.0000000000000000e+00  1.2734901445486658e-06 -1.4200137203386649e-04 0.0000000000000000e+00  -3.7232790645658674e-06 1.2728187979828601e-04 0.0000000000000000e+00  8.9728409942881339e-07 -1.3878754584554102e-04 0.0000000000000000e+00  -4.1338710568670010e-07 1.5911387615211235e-04 0.0000000000000000e+00  -3.2738225296651913e-06 -6.6150721061832119e-05 0.0000000000000000e+00  5.3901036506169286e-06 8.7177406411327086e-05 0.0000000000000000e+00  1.2514634328351232e-06 8.1976991166583950e-05 0.0000000000000000e+00  2.0054582338967662e-06 4.5838188184815140e-05 0.0000000000000000e+00  </DataArray> 
</PointData> 
</Piece>
</UnstructuredGrid>
</VTKFile>