<?xml version="1.0"?>
<VTKFile type="UnstructuredGrid"  version="0.1"  >
<UnstructuredGrid>
<Piece  NumberOfPoints="201" NumberOfCells="657">
<Points>
<DataArray  type="Float64"  NumberOfComponents="3"  format="ascii">-11.02914600816061 1.487552936868987 261.0980288870497  -11.24582321134034 -1.243040672740325 -262.9431976214932  2272.412362866395 1.691192022950605 -270.8008705197252  3900.285331229054 -0.3223415524244091 -276.0123488432759  4852.726511741731 -1.810327090097265 -243.7249049707803  5346.789967980205 -1.406949578009018 -140.3003577433618  5501.396986635151 -0.8543436899979142 4.073285117109302  5347.104803124299 -1.135048384282617 148.0888332829961  4852.347231161266 -1.486536244211195 250.8264792190365  3901.911313842681 0.8077608054355121 282.6490474095168  2270.471769297518 1.289514658449828 275.5296214448404  2755.973776507298 -534.0624161102158 -262.7579089112767  2771.303671855139 414.5830716200245 271.0486052143273  5304.971177551505 -602.9175901337283 -65.39466391718592  4293.473012755706 -584.1099212451537 254.9590430046172  5005.153774535244 587.4127812973901 188.1032990063589  4994.730023567983 587.6532657205936 -183.0048633493161  3037.400218545298 487.4716022110414 -265.9543806093293  1133.715708071016 -443.1924136626668 257.2452100951202  4281.123481691923 -538.4964751277543 -251.2304381820315  3135.636913610885 -965.8723775707127 -227.2065949688052  4258.971026952468 -1041.522854961284 -182.570116726027  3051.995175367337 -1359.774155448121 -153.1472651629448  4018.260343544782 -1378.282971168027 -83.67498658509531  2657.31220034136 -1586.538578604232 -61.57556004502393  3619.648820615927 -1522.198879022512 21.40033577959685  2009.82769936187 -1640.845698203153 29.97029396274698  2891.938056249721 -1492.187043054975 115.6637745841956  1089.058666467314 -1543.494957719499 106.8222549829963  1986.434182471581 -1290.611797436702 180.2207638207238  -77.87109901633687 -1331.882808398993 167.8466920046082  4190.242148082493 -1292.566599317004 113.4935351991868  4286.30586874218 539.4242633074425 259.871962451278  4196.469742897339 1043.433752565882 195.444264825198  4774.489228422725 1064.564224300225 100.4749937311283  796.3075405704341 -990.47621994271 220.792285527645  2772.913769508287 -931.834550656051 234.8596606973756  3156.987177079645 913.0089925042722 239.0143603156785  2924.634896098848 1324.664811870899 168.7891761082246  5314.429106675069 -588.8223355840081 72.44447593902559  4776.643564364172 -1148.122862700526 11.25569731573607  5024.488881287648 -589.7282671787171 -177.3908645583999  1121.197107200935 446.1427335557553 -254.5442491332296  4259.356055126645 522.0864304785676 -254.0156954481978  4169.936941222008 1036.112753676064 -191.3774900511314  1358.285431820379 -1506.184524886046 -118.2913701787536  -959.889368243271 -1557.665648496197 98.11197335729067  1455.023875183804 -909.8375565318703 -226.4909930286872  4750.30929098486 1073.822229535853 -95.78519638338733  3732.215928250324 1416.034252650479 -100.8474147278045  2854.366422295976 1283.067410639057 -173.848984396354  2214.989248611141 1552.922092456187 -93.56789727558358  1033.546412568066 1393.329929844083 -152.8796131704267  284.5765458975835 1600.978973872493 -80.50937104541553  -1063.523674043033 1435.812910859958 -144.0972380548691  -1673.322522684862 1619.812295422818 -65.63684434658376  -2880.265956880376 1464.632419570098 -128.1975703528534  -333.5798159855609 1666.241426737655 4.811896522157698  -2122.520121986849 -1347.577180333155 166.2679151060275  -2747.800449870642 -1551.838231622247 88.23824992687216  -3260.121302499414 1566.369969057453 -38.19617614642615  -4178.123457311372 1315.240349887643 -104.3334693350219  -4360.504690016146 1337.871548415522 5.628340580344349  -5006.79806427181 940.5030042259908 -75.69263872285823  -5056.791869825489 897.4969520160486 62.75069490058642  -4654.090722162093 854.146739038248 -193.0885790421965  -4285.04219138273 1224.602900416067 125.1612470606618  -5276.017369638985 399.4472366399725 -139.467823163397  -4849.284713776138 717.9061018711444 183.8896878085615  -4799.932836044479 241.4945743193868 -249.642875776664  -5146.356652408174 -285.5041890637849 -193.3936584573492  -3887.55540045203 982.6458223406368 213.2471445891371  -1035.303459183526 -686.1335007274652 241.0074013540552  -3698.805351654708 -1271.103849376089 156.4955656133204  -4464.746780507136 -358.3404133820482 -265.5560951103413  -4604.332452365556 -858.2957968993392 -197.6692512138932  -5358.258500805426 255.7661418493108 115.2836525201186  -2262.265396363389 1164.400845004148 -205.4631703448351  -4306.93320547726 433.8715640571618 261.2520645450047  1495.036167662883 1133.54733840072 204.5290302362432  -5172.941959728633 -750.6849304569381 -82.22337786791155  -3858.251005697279 135.267749981019 -283.3404308036887  -3090.08876414843 697.4576180923489 251.8959972578175  -3624.682020226999 -840.0196998231553 -244.066227991317  -3620.746461766622 -1261.243913107055 -169.9928450326772  -3104.159292013832 1370.674015138804 149.1827257421388  -1610.256240384054 -1656.58446949576 18.05427216104779  -3306.992711788716 122.0095869786579 275.827614161387  -4429.681632548933 -191.1424300019774 265.2732683748302  -2284.167365690039 -1159.822602824073 -206.9991876555843  -2191.883322293436 -1482.360756573529 -132.5060605036151  -2093.116956189294 -718.1773485980003 -251.3080687778193  3100.563704365671 1588.672661989585 -6.208028273640389  -4016.475124362561 -1405.598859606763 63.53315917521404  -4738.151002893375 -1013.83394538513 127.8357086521131  1188.177918114015 1460.648269351755 136.6971807337484  -455.6499875201965 1295.86350587963 173.5684476566346  -162.6430202716039 970.2996720433196 219.7220435489986  -1988.550154217556 424.4174643633716 262.6828856565703  -3002.228927552944 -982.9047352449843 226.4446875088473  1636.895296436689 1116.000963432239 -204.9535970636373  -3391.061285708345 -1509.250374533467 -80.53771711293983  -537.0943333241916 830.8719947049998 -233.1644486356616  -1235.570676403869 360.1241396932527 -261.3344819286097  -741.1445152665781 1559.741222973291 97.86908032657527  -1587.47453261464 -258.1948387850371 262.3225578800361  -491.0263569595307 -1359.059406840566 -162.1504524895312  -3146.885321595953 -447.0499685546554 268.6517824599575  -4325.342601866113 -798.8516711035043 221.3168435764261  -5058.541198457651 -416.1082664539269 193.8052206168951  -5313.943414808772 -558.2999839888395 62.41477263660375  -5475.023362259989 -73.70195122067591 -46.56064046362835  -2671.472638201455 759.4789699735057 -252.9577615722208  -3731.574420337239 906.899497900257 -233.8910113333761  -565.3872810086331 -1569.144036452929 -96.26128389912047  -240.7999185800962 1220.434755612408 -188.6237078725204  2506.031319716733 1564.039764240172 86.79988756608425  5005.865250866767 -563.4475229649354 191.7897736301583  361.993799151572 -461.926868099161 -251.7388702285705  1016.133490818818 -1640.544210804128 -44.82050284852093  -2093.34437101476 1103.589955904407 209.183200890668  5314.434691264075 565.894422784797 -67.15187044718702  3819.117154454429 1413.842727351498 99.41889723563699  4350.537389575789 1345.331770356078 -1.12234370983076  -4439.340737973596 -1220.037556740668 -104.2868000167064  -2091.62099212802 1646.981798598575 22.52500312542006  -3362.689627956239 1528.49943534181 61.88285573146326  -391.5464287536002 -1005.781231227136 -216.6190457391412  -1735.965765924472 -187.99475558161 -269.5320225853341  -3368.661870058279 -329.017431487474 -279.6023144679789  1471.570352085062 1654.771882093133 -14.15841362433299  167.5453368184893 -1657.115733034816 32.55410518517508  3479.768674670317 -1188.807601518115 192.1046390551238  5318.189872715842 573.0593917955122 66.70027727180261  3033.341206823025 -483.5317188943853 272.6028655454878  -4798.58395108169 -1135.819577659186 7.25597517252592  -1266.595956519574 -1105.260789756434 204.3554517738533  3238.891526908974 889.0917944893189 -234.7654319801809  -5012.113653164 171.9952382046639 218.5798227485749  1530.993794037854 -1258.559553223545 -180.9854017557408  1758.507123622095 812.1936651746938 239.926387179438  912.5376711043982 1625.105221702042 62.85280299255832  -3822.395612650647 1215.120799102629 -174.4786968347769  4800.950344314802 -1023.470135273015 -106.5811205059575  -112.4881113705915 425.2053861795076 253.1616538280547  4504.488187435619 -963.0537275511592 184.7736015957814  -5360.195878459181 539.8919288604717 -14.96963935805978  -3131.632942407077 -1592.178811005904 0.1605465370189227  -2001.436013296442 -1629.722917211272 -54.2165500336645  5029.902184716054 966.3959500126427 0.4247251748639068  -1612.160664816377 832.5587587037959 236.2855404879758  1995.204982853604 763.1077119553842 -241.5280230306783  -2451.819013153076 127.0764758019829 -277.4085741062498  -2328.069280869508 1546.375640972247 99.32122161044786  4870.785165640277 -957.7977380279777 121.0580331425098  -449.3992169407074 -1657.447062666259 -30.37538475820247  -4110.428441209806 510.2477008710406 -265.7389586356024  -3047.513261932211 398.3074637228492 -276.0836890686849  -1860.921141414746 1384.734934709389 156.7832926398907  -4105.047743069153 -1415.184361736319 -24.80469216175874  -9.157728583964747 -0.2146394990179244 -0.3857348257337249  -2283.937210111348 -677.4390575425507 5.131163501501372  3338.794378201527 279.3277666772466 2.06610401956384  -1419.80745461623 690.6789364240522 59.63611428942911  2574.042709926865 -511.0987461502298 62.84208360349126  -1765.969993933907 72.77419917154214 -125.5572499474838  -3421.585427718042 143.8795301093201 -3.085126809507123  702.0251649563636 765.6311465941884 -50.92816080500022  2434.403044840882 -398.6771433385003 -84.63335307532614  -1944.782394122855 -74.76587588254087 119.5928903517615  1835.479306254811 587.8570198134912 99.79551529542049  -693.8237266885086 -652.1243945646095 -102.6018410908371  600.0731407357263 -939.7393648986543 0.7013473286153044  1498.568999760484 254.4733474171325 -133.63034
[...]
<PointData  Vectors="Self-Gravity"> 
<DataArray  type="Float64"  Name="Self-Gravity"  NumberOfComponents="3" format="ascii">1.6727959670645175e-07 6.8461793826303447e-07 -1.0101234673507395e-04  -7.6752607762708911e-09 -1.3217776214781870e-06 9.8269836119506819e-05  -4.0628690562688084e-07 5.8448747789465512e-07 9.6120428434709457e-05  -1.3507019564224841e-06 8.2181248436406724e-07 8.4927011951051458e-05  -1.5651108641933080e-06 3.8921143921314415e-07 3.2803796599475759e-05  -1.5376722304313898e-05 9.7964828003319874e-07 5.4444208096168053e-05  -2.3103620487375048e-05 -3.7778791661025707e-07 3.2825824071399764e-06  -1.4904853558218348e-05 -1.8434766229317167e-06 -4.5091069257988178e-05  -3.4189232528425988e-06 6.3329053636354031e-07 -5.0903641576398091e-05  -1.1120110075704639e-06 3.4791819531959276e-07 -8.7272874930126193e-05  -1.7323369852490594e-07 8.8063628876055555e-07 -8.7129443470219435e-05  -3.9450482306557921e-07 3.6889894220999581e-06 6.2724979214607841e-05  -2.7958332289605429e-07 -3.5614837121099058e-06 -8.8876393683351619e-05  -2.5338236700181625e-05 1.6831079572586759e-05 3.3104523189024344e-05  -1.7010101254487679e-06 5.2175188706887467e-06 -7.5508363229869681e-05  -7.1958020944553276e-06 -7.7080028721255125e-06 -6.2004415043464533e-05  -8.1859756492439854e-06 -9.1681095577646338e-06 6.9925232658544020e-05  -3.2938777182916069e-07 -3.7921934631744092e-06 8.2718949303493266e-05  2.4244146487598550e-07 3.2774689095268326e-06 -7.4921223125223508e-05  -2.5337312717672094e-06 6.3243528645989794e-06 8.0582106972766334e-05  -1.1087162705739036e-06 9.0283068758132593e-06 7.2407026036858636e-05  -3.6203408932351633e-06 1.4512637256071060e-05 6.0230465610872304e-05  -1.2192823762268468e-06 1.3316622381557591e-05 4.1156540429938468e-05  -4.8827060532288739e-06 2.2004082732964832e-05 2.9003208335609296e-05  -1.1191930835951603e-06 1.5888699899513052e-05 1.8940783537689976e-05  -3.3112970309714765e-06 2.2484010886425767e-05 -1.2216497158545326e-05  -8.7989028307604635e-07 1.7760115134428039e-05 -7.1887385085581547e-06  -1.0325951864299010e-06 1.1946129012365868e-05 -2.6898471041176847e-05  -8.6786271868720429e-08 1.3233511715568177e-05 -3.3777141179106117e-05  -2.9526544316878742e-07 1.0261917486186360e-05 -4.4141721023267679e-05  1.0671364762031517e-07 1.4934369255428856e-05 -5.9310041989395847e-05  -4.3315719725830591e-06 1.9729599743054255e-05 -4.1994485404744236e-05  -2.4239015155795013e-06 -7.0635070751127093e-06 -7.7765343941373630e-05  -2.9487658158854148e-06 -1.1981944986848813e-05 -5.6798268384292743e-05  -9.3881718462983850e-06 -1.7373981978566544e-05 -4.0036560582942555e-05  3.5194052598072511e-09 9.2453345666010186e-06 -7.8511866668305394e-05  -5.3674428778007024e-07 8.9844343493687777e-06 -8.0561586052170148e-05  -1.3790702023205706e-06 -1.0141570749892103e-05 -7.8457052656303035e-05  -1.4780185576263368e-06 -1.6093474274660540e-05 -4.9398558981377269e-05  -2.2697828113883076e-05 1.4134155277367935e-05 -3.6699176901690212e-05  -1.1405081305499822e-05 2.3859723059566932e-05 -8.4221742122103654e-06  -9.3003908057512847e-06 9.3803567668218092e-06 7.3141206194918964e-05  -8.5934187492431435e-10 -4.4375146773544994e-06 9.5813573922280969e-05  -2.2623653783093014e-06 -5.4839774078560947e-06 8.1610002442353556e-05  -2.8955058610375202e-06 -1.0950932430735633e-05 5.2468262513370748e-05  -3.0897759624485819e-07 1.1147549624462239e-05 3.6504166956707941e-05  2.2393614493785536e-07 1.5063691763181952e-05 -3.5814636190853104e-05  -3.6476266413075957e-07 8.6644200956049689e-06 7.9710360122138809e-05  -7.4648861719421101e-06 -1.4931227191440839e-05 3.6329294409625142e-05  -2.9452511108672210e-06 -1.6447871256029989e-05 3.3443393592825620e-05  -8.9902170652591943e-07 -1.3702111193592628e-05 5.7160809659752839e-05  -1.1723970715664084e-06 -1.6344154567282657e-05 3.3315004248735799e-05  -7.2429685189609810e-08 -1.4023123038107095e-05 5.4532632367526655e-05  -9.1150929384702460e-08 -1.6861490952701453e-05 3.1070469794527322e-05  3.0162770495546014e-08 -1.5185705943779153e-05 4.7855377082863654e-05  4.5631682113965674e-07 -1.5557022875685992e-05 1.6720500791627486e-05  9.4807775129419566e-07 -1.6705160791881868e-05 4.4456182439877580e-05  -1.6739926845806767e-08 -1.7302115395009047e-05 -1.7509487953215639e-06  7.7177465952847777e-07 1.2036551868388115e-05 -4.8732346086581072e-05  7.3608435130401391e-07 1.3058627877034281e-05 -2.3822134899491320e-05  2.2087599015836553e-06 -2.0743955800568105e-05 1.2242080316165804e-05  4.5287259988620703e-06 -1.7834178531758884e-05 3.8875439771605257e-05  5.7782406477364449e-06 -1.7776044779578795e-05 -3.6156398700403486e-06  1.2352529596287119e-05 -1.8722758903203353e-05 2.6913200785045079e-05  1.2902732247303665e-05 -1.7013953847966667e-05 -2.8809752490323831e-05  3.8433976132415798e-06 -7.7762651366116062e-06 4.1576966507554657e-05  4.8572090338258723e-06 -1.3544512085358439e-05 -3.9953336493518808e-05  1.4797708742339151e-05 -5.8990172491639424e-06 5.6334448465535547e-05  6.8978597551858520e-06 -8.9046964015846971e-06 -5.7336533171146340e-05  3.4899989395851178e-06 -8.3936230801753933e-07 5.3395452433973301e-05  1.2031977923460781e-05 4.1050680381889521e-06 6.0157279210128779e-05  2.1602819857262432e-06 -1.2416167872859110e-05 -7.3216009711475695e-05  3.3428510718590504e-07 5.6551614370121984e-06 -8.3246796822128525e-05  2.1982584324580074e-06 1.2622000269240307e-05 -5.2498275010146388e-05  3.1696682094285810e-06 3.9707982201236736e-06 8.0696865382276663e-05  5.5484120250911399e-06 1.0888933654756860e-05 7.2458932783118652e-05  1.9101396748614609e-05 -3.2356940871598254e-06 -4.4089720341326861e-05  5.6627273152387829e-07 -9.1313365003892065e-06 5.5335820761724716e-05  1.9220459010627469e-06 -3.8178873747536531e-06 -5.3015455079749247e-05  -1.4831777344266123e-07 -1.0305046577070345e-05 -6.3673601689607099e-05  1.6331173074822276e-05 1.5796647454125211e-05 3.1232172208099372e-05  1.4128166774534899e-06 -4.9360013903454973e-07 8.7679278951342126e-05  7.0088464876063076e-07 -6.5290604754263995e-06 -8.0958790070786565e-05  7.4172784250095076e-07 6.0198095840492461e-06 6.1433143319182402e-05  1.6531940707610794e-06 1.1877146576546685e-05 5.2944697188041572e-05  2.0521828583759931e-06 -1.6494872026661497e-05 -4.7581748607834472e-05  5.6326317238925039e-07 1.7258867535215025e-05 -7.8948277271432787e-06  9.9672832563426321e-07 -1.1767951187558346e-06 -8.8617043796935353e-05  3.4367406299735085e-06 1.4950227239113198e-06 -8.1126956631440603e-05  5.0229557584912065e-07 1.0489047442626129e-05 5.9782890648528092e-05  6.6260077840096664e-07 1.4144122165776891e-05 3.9318311484275620e-05  9.8136404742328679e-09 6.1553697660963349e-06 8.5415431427553440e-05  -2.1521040934067440e-06 -2.1098407040433264e-05 -1.3158886026842729e-06  4.0112666412375551e-06 1.7650789385624326e-05 -2.8274087162717355e-05  7.2428473999694021e-06 1.4637878801645997e-05 -4.5496797014768351e-05  -5.2207847231649490e-08 -1.2389117321065578e-05 -4.4599871765135588e-05  1.6764609295752880e-07 -1.3247781857874080e-05 -6.3557767183760897e-05  2.3935619071046276e-08 -7.5004546948061151e-06 -7.2309496052195266e-05  1.5741743646839504e-07 -2.9607502681083754e-06 -8.3421959267920007e-05  1.1019012141729624e-06 9.4818236817621478e-06 -6.9789586881481162e-05  -2.5198470755146883e-07 -9.1400749963420043e-06 7.0796936840689760e-05  1.6938538329298095e-06 1.5240943029072601e-05 3.1865152039954168e-05  -8.7733464074647688e-08 -6.9095398610015019e-06 6.8493695855737530e-05  -6.4644583175064733e-08 -4.4076996424977169e-06 1.0053926036855843e-04  2.4806413305385973e-08 -1.6377987459291794e-05 -3.4270703699047549e-05  6.7656999796557279e-08 8.9615626904264225e-07 -9.8120687775473241e-05  -9.3775225807037335e-08 1.4410057928206697e-05 5.8242989971764649e-05  1.0676855958335062e-06 3.4650821512653702e-06 -7.9963064332135478e-05  3.5352222820896184e-06 8.2949063067866333e-06 -8.4960881359204436e-05  4.5392497867339486e-06 2.6851975395298989e-06 -4.5229982839427340e-05  1.8329999699571165e-05 1.1233664563103584e-05 -2.5335395599047770e-05  2.0117643048743896e-05 2.6475057304070767e-06 1.7975717019873583e-05  4.4205566859099573e-07 -7.6274659345838908e-06 8.5172765755107101e-05  1.4787077438445039e-06 -8.8919054098342512e-06 6.7804739856218936e-05  6.4004521163656195e-08 1.5668706867656855e-05 3.7620924403580994e-05  -1.5607021489760023e-07 -8.8159051471577411e-06 4.8197873947178060e-05  -1.1717583643508956e-06 -1.8450629588582929e-05 -3.2401464220354489e-05  -1.0189176516168327e-05 9.8701668065747991e-06 -6.7434749984152247e-05  -2.1158458407961525e-08 3.2354393728163802e-06 8.8717004370652086e-05  -1.4980800938308213e-07 1.6467403735369416e-05 1.8949733429930715e-05  2.0724319026615620e-07 -7.5363768247965923e-06 -6.8995812802046750e-05  -1.9932117137545667e-05 -1.2767364448917634e-05 3.3622154581072387e-05  -2.8150710145135705e-06 -1.5847755982045372e-05 -3.3225304885992945e-05  -6.2532898850879427e-06 -2.1025802278690150e-05 -7.2062091707866824e-06  7.6419894526853667e-06 2.0794460042093410e-05 4.2871675117438072e-05  1.1947617747706725e-06 -1.8963666371295943e-05 -8.9364917033816417e-06  2.3035589935213069e-06 -1.8158188783565316e-05 -2.1680974724401425e-05  3.1103461026313679e-09 8.0288307758057101e-06 6.6496503279849309e-05  -1.8467175599372877e-07 3.3874283185963086e-06 9.7027787998297437e-05  6.2401369468631585e-07 2.7835510959714918e-06 7.0594452335514784e-05  -2.4318147777879242e-07 -1.6227022942139473e-05 7.3169738774292928e-06  -1.2436173835742521e-07 1.6105511818649128e-05 -1.3413480192037192e-05  -1.3429676678972756e-06 1.1033498988238793e-05 -5.4348569576218298e-05  -2.2117718773093408e-05 -1.3734261941702899e-05 -2.9331702058934040e-05  -2.3133797305448167e-07 3.5614785928250397e-06 -7.7551287585138514e-05  1.1425320913520534e-05 2.0198990243969491e-05 -6.6120418688820173e-06  2.6517854781106519e-07 7.6755625583880315e-06 -5.7134593121586979e-05  -8.6684435071755173e-07 -9.3878230540577695e-06 7.8045281538167781e-05  7.5707155017821998e-06 -9.7125190329641160e-07 -7.3091894358633209e-05  -2.3226408128069057e-07 1.1305984481651534e-05 5.9314213812560574e-05  -1.2413933553548385e-07 -4.8926818663950094e-06 -7.6210335423831956e-05  -4.6466229291209594e-08 -1.5578354999793090e-05 -2.2090021745727317e-05  2.0889204995540539e-06 -1.3887349713974977e-05 5.7990736653414726e-05  -1.0486667779529800e-05 1.9580703908887368e-05 3.9828157534943524e-05  -3.6582144481522408e-07 -4.6765088354640334e-06 -9.2796926174232546e-05  -3.9877715323573266e-06 1.1648476873676648e-05 -6.6610915726301076e-05  2.2942169385476560e-05 -1.3357257796793740e-05 1.1207192965283481e-06  1.6366261784293394e-06 1.7654147078404927e-05 -1.8025870454107185e-06  5.4470378160123236e-07 1.3880270790901410e-05 1.9051408892770189e-05  -1.2479096795308602e-05 -1.8399286074801998e-05 -4.5744316743877565e-06  3.1439932724748863e-07 -4.2641610794663981e-06 -8.0663743089343838e-05  -2.2393802499741175e-07 -7.6576470758816664e-06 7.7352497800765331e-05  4.5239180019408993e-07 -9.5480937050674196e-07 9.4648799335777492e-05  9.4773604744520512e-07 -1.6326205081819266e-05 -2.7901030786565442e-05  -1.1634211868252372e-05 1.9134342005058734e-05 -4.7215756405177976e-05  1.1430449426518138e-07 1.7616336764390512e-05 6.4040831837020682e-06  2.1948727794849077e-06 -6.1743895486045227e-06 1.0039850921241232e-04  8.3558180753284221e-09 -2.5215337708341121e-06 9.7437931424288062e-05  4.6748882446872578e-07 -1.5049259156866248e-05 -5.5569064401978280e-05  6.5364121803258065e-06 2.7508285468134593e-05 6.7484641456403973e-06  -8.6938739587690042e-08 2.1054197284998542e-06 -4.5381067969012476e-06  2.8936482877623462e-06 1.0122673225015166e-05 -4.1134150635086149e-06  -8.4175900663862697e-06 -4.2928286078206164e-06 -5.2882588468561342e-06  1.0912708296659985e-06 -9.3746084663416465e-06 -3.4624580003957622e-05  -2.8563658276404540e-06 7.6716902260685882e-06 -2.9967730284249271e-05  7.9833392665337684e-07 -1.8325509029928514e-06 6.2768105693236626e-05  7.6904341589828933e-06 -3.4470425533178469e-06 -3.3024823906533750e-06  -3.4509024350190679e-07 -1.0792590179388085e-05 3.5898224584384653e-05  -2.5547139451897387e-06 6.1189902087213945e-06 3.8510671826324101e-05  1.3029126150516702e-06 1.6647576551680371e-06 -5.8917352406008656e-05  -1.2802495232735472e-06 -8.7456271047454989e-06 -5.9798662141025792e-05  3.5257662491387092e-07 7.3627232062301646e-06 4.1514874385852178e-05  -3.0992308856330316e-07 1.0133893197606068e-05 2.7629306859181342e-06  -5.8910887719898764e-07 -3.8274934035812477e-06 7.6333525047774696e-05  4.0932367565975969e-07 8.0072347383835295e-06 -4.8313647194741616e-05  -2.4364180092720398e-07 2.4578573767746474e-06 -7.4324240264045965e-05  1.7317484802593380e-06 -9.3868509428765935e-06 2.2859687077109046e-05  6.2470005117115826e-06 8.1513275301495902e-06 3.5869440301114387e-05  -4.9331414188098672e-06 6.6804796162373560e-07 -5.6822921025155678e-05  8.9870463692975755e-08 -5.8468693552906159e-06 -7.3769351114022342e-05  -3.7009170907495718e-07 -1.3683226244141036e-05 -2.8793570754807535e-05  -2.7433158882138073e-06 -1.0675154976022989e-05 5.2068858312402167e-05  -2.7187056430368266e-06 -1.4554532418578948e-05 3.4640321408084849e-07  4.6008066925339893e-06 -6.5611419698730079e-06 -6.4604104675871141e-05  -1.5194166593954674e-05 1.1303154950075401e-05 9.9120193684994319e-06  1.8387771185453688e-07 -8.4425221259508171e-06 6.6578417099519391e-05  1.0371521333996587e-05 9.4114867051305354e-06 -4.4403291327237184e-05  -7.3288651186417208e-06 -2.6675589054149208e-06 5.6889001048384744e-05  -3.8960420204190958e-06 1.7669426145515803e-05 1.4752240284558224e-05  6.7565361004621146e-06 -6.4283581939293226e-06 6.2710583395155062e-05  -2.6089509765183888e-07 3.2404653177987555e-06 6.9789027178913056e-05  6.1597580972112047e-07 1.4213699994805287e-05 2.9617375597837051e-05  7.8829252127179700e-07 1.5510177542768853e-05 -2.8986131220012297e-05  -6.5553879472223431e-07 1.3017012326928851e-05 -4.0836463741628865e-05  4.8678179102984531e-06 -1.7253046508201223e-05 -1.4195933634006452e-05  -5.6322253525164721e-07 1.1535746634420291e-05 5.0283021125694367e-05  5.4056764044007723e-07 -1.4941314525073868e-05 8.5262202340454163e-06  1.0100012222169243e-06 5.2525463637081075e-06 7.6708966759932956e-05  -7.7518419809336280e-06 -1.3520654137422608e-05 -4.9596017696191596e-05  -3.1091515359607797e-07 -5.9666122609620674e-06 -3.1078618556071208e-05  -1.1151198202878782e-06 -3.4359173910660818e-06 3.6543247945409158e-05  </DataArray> 
</PointData> 
</Piece>
</UnstructuredGrid>
</VTKFile>