<?xml version="1.0"?>
<VTKFile type="UnstructuredGrid"  version="0.1"  >
<UnstructuredGrid>
<Piece  NumberOfPoints="201" NumberOfCells="657">
<Points>
<DataArray  type="Float64"  NumberOfComponents="3"  format="ascii">-34.34802943624504 2.054754776101034 175.6719100994555  -20.36317442611282 -1.923741771957609 -178.0389301334218  5128.653442553737 -38.55668990906518 -217.7972917067927  8583.911759506393 -54.09022183922343 -294.7853473253039  10370.00534000222 -60.02009407675181 -354.2582064585964  11243.20408308947 -58.77584940345776 -237.6115541197254  11511.64821443079 -59.37492498532656 3.027381631557546  11245.0105817007 -61.59635970871739 238.9944987934129  10369.90546970927 -62.10529169370777 350.8667747726852  8589.016844106185 -61.74794942429058 291.732813031919  5132.965601305922 -26.87651490294632 213.8514164424249  6000.678533889767 -2517.974946719354 -262.3212972433344  6123.616013267185 1927.394687239609 245.0481302711725  11096.12516827824 -1926.057550262066 -120.0168386562113  9147.34712441468 -2252.294449661782 335.8220130523991  10510.95516457458 1895.565688006734 300.8942201570817  10505.45928501936 1894.920983153602 -300.5807666021435  6646.198162093916 2177.435616308138 -272.4380223274176  2528.104208438695 -2377.334538559393 213.4629702221098  9150.669419946766 -2095.760489968267 -329.3827487039313  6509.965306534754 -4056.971052424659 -309.1585961675571  8804.451225373823 -3754.345474335193 -295.6692021057327  6069.198911291163 -5263.615698574761 -272.3257302425918  8085.803001188057 -4813.240719541385 -163.1912876118067  5132.371227895084 -6002.679254498698 -128.3979323510283  7162.23660957947 -5399.001830607231 34.52068183907897  3811.664099815519 -6349.65544670476 60.06479030261125  5663.681919600595 -5672.725002047827 216.1365289486736  2064.832662540524 -6316.067564751866 210.9684859924317  3924.501213332334 -5459.519503365699 292.1087036867281  -136.5329655650793 -5825.18916333465 282.465128647063  8501.697456935093 -4490.762877429775 191.8410609141024  9173.706726344979 1996.058242569412 335.3309395700132  8663.862050359941 3703.263529570073 304.4633626918086  9834.025426069853 3427.64240999569 168.0453682812802  1647.772807249668 -4728.146341888971 263.7771017900099  5776.53486072434 -4089.539419261119 292.6314547100661  6595.369086136378 3782.039617195089 306.7374533943661  5801.964411050833 5155.117004177303 277.9956348321011  11115.83563202717 -1881.253392125589 117.7551083471774  9807.21566842044 -3756.236335879005 10.30059567320877  10579.31175294836 -1995.20389426291 -286.1835830172918  2463.797014694651 2359.009426540816 -205.3479384373348  9127.017949259382 1957.688267987455 -336.66018304057  8616.922016351788 3694.712843720681 -309.2406137400693  2590.947748140039 -6183.229978365614 -230.6525870006981  -1802.700191762585 -6355.526199292814 200.2980559030249  3050.070593957194 -4342.368765157093 -261.1519313152919  9774.909502438657 3475.79728127509 -177.1648110498431  7451.441038496181 4983.953348576871 -192.529335722172  5692.612303387284 5069.575809623051 -289.2564597844217  4229.89793371547 6015.410485708278 -186.7829051565549  1959.11653380767 5893.637821823258 -270.0470182109452  481.036176392067 6484.324382961789 -167.2660863580794  -2094.781739075262 6044.521294682789 -259.1860146758885  -3225.904220498715 6383.48841943581 -134.607590659976  -5701.67465767516 5634.565743464733 -236.0357617318542  -682.7657690084123 6651.418896612993 12.63322989146367  -4169.376827906567 -5531.155295083509 279.060260302939  -5335.144603078353 -5831.610549303054 174.5309484623871  -6428.068740501183 5720.375610849761 -70.39386749260609  -8482.148359359908 4605.616343040771 -184.1941501506542  -8850.114359255016 4547.26133142819 15.80599256404703  -10370.06087102989 3065.005302971496 -127.1736147819267  -10479.24182692717 2915.328389265688 115.1789927344992  -9712.109273007934 3008.275493233729 -300.794661678836  -8755.210257988268 4292.900400372137 226.9530511065915  -11039.27336289626 1339.314361005107 -229.8461962384644  -10155.28448946409 2486.58684785263 295.5180007119774  -10214.08498376562 919.5571082193291 -348.9207163139443  -10820.89171542623 -893.6232879935558 -303.2930084521591  -8091.393042720001 3805.162651246424 318.8988572658824  -2244.621121179654 -3466.247684944539 221.8941676414942  -7472.354576947087 -4661.304897399621 271.0946289791599  -9571.888156280875 -1299.116920094715 -341.9822439256443  -9599.631516746034 -2951.840136329025 -303.3789247321284  -11197.43147789598 872.9653487847809 203.5788108485445  -4600.79673021366 5006.663635343695 -301.022130698762  -9234.315893079191 1725.002548009182 334.605797409967  2979.002694017738 5061.05857069142 289.7260143102128  -10736.77671737 -2337.896428377993 -137.6724089010906  -8447.871979331996 602.630958406656 -296.8801282597185  -6620.905449314482 3144.570448406078 286.3645072314061  -7620.784743330864 -3361.567021561336 -318.9436027650854  -7315.921174302246 -4665.787132871297 -279.0206811893171  -6205.717516938695 5304.856042359421 268.1800260430601  -3019.563254969025 -6455.34590800023 42.5430493569339  -7335.798280562472 581.8199400968841 254.6804160734823  -9550.752035036081 -678.9931199092949 338.2852407564798  -4610.697753053904 -4922.994064647477 -299.3751471950808  -4238.409843347479 -5863.592228735318 -243.4847657173951  -4483.389969162862 -3424.083496936247 -260.3260045245729  6022.626913851511 5746.786886967015 -18.56355594679703  -8055.373764848056 -4838.406429222467 125.884232696149  -9789.426475931443 -3341.472830497144 225.112770207938  2241.62611539158 6043.01732870857 251.4723188901274  -945.6916154684351 5704.451905834597 278.6280227226289  -370.4107111487592 4658.706963668071 266.8938191592007  -4406.393543733236 2183.928011282399 229.2915963246501  -6226.765044488745 -4103.224475936901 308.1666278954777  3274.45014857137 4972.617460796399 -286.2650887666342  -6680.812766093843 -5439.687261721482 -148.5602053654142  -1163.833106732715 4138.060388053447 -247.01691921596  -2766.419360437414 1942.744640936657 -209.2057266085216  -1460.431019259323 6387.111229422866 197.1853946104  -3574.04873558658 -1372.320164828029 198.7912735761248  -930.4171227612318 -5891.386524872531 -277.1857046326439  -6868.909722058761 -2003.928485299386 273.9009626630919  -9086.254591830511 -2913.524948485457 321.3704542446341  -10634.19616790916 -1341.670152294682 313.1332787739572  -11054.97887366578 -1706.053377968445 115.8743483370271  -11412.47400825362 -170.8371366110204 -76.41213233881757  -5708.214491325386 3488.193991999939 -282.3817071825265  -7816.021423787636 3631.663846415815 -321.1568441476171  -1052.04531328253 -6425.763970161051 -196.0543796477345  -524.1104677533183 5483.572633655381 -286.5913434401602  4815.722640982845 5934.392158987785 165.7706014099758  10553.16879091501 -1912.024760011165 292.7059760648895  801.0376017083214 -2496.985464089954 -200.3179476476534  1903.090674261228 -6556.9144526342 -99.76234631096027  -4289.957549194202 4880.018522367982 291.9158132559559  11095.04702270782 1712.713856713021 -124.6194722498664  7638.836882131632 4929.569591082885 177.8810084956602  8801.500848928285 4436.420069399312 -9.265296398534836  -9050.494655041291 -4098.380830640926 -177.9009354968996  -4032.191217607116 6343.58608944397 48.88304167413299  -6657.773693104165 5579.380241638877 126.4470841087034  -784.648849258661 -4802.078849936646 -263.9944276575853  -3907.238567985054 -980.4631468514613 -205.0959061752878  -7408.049532246727 -1436.032959700724 -276.0264326168486  2727.3852882581 6465.388764959805 -32.68420680904595  317.8665851232824 -6649.433040624466 72.01529740668887  7069.568428344559 -4597.238237997569 300.85561186915  11096.3102384055 1735.360617628821 112.7080556086439  6612.397370778135 -2232.21712088861 276.4210121372183  -9844.894393323031 -3646.33369835582 20.13975501776191  -2544.105094472616 -5024.068378018049 276.6774524288014  6783.221654437724 3670.720037563523 -307.2163007992098  -10600.23125744677 642.6776318778561 335.2672656339004  3026.42708149925 -5482.936709992493 -286.2530775291145  3698.136759981606 3870.632105882652 256.4209931017606  1665.13443985492 6486.200740123218 130.7593333202761  -7805.59294472837 4534.445807968491 -284.0441775238938  9926.11624632422 -3394.098372572115 -188.6957209590005  -275.6367860515351 2300.641554943207 192.0558244207093  9352.467325006308 -3402.522763826158 286.1162071611963  -11157.80119554992 1741.81439089974 -20.91626805834808  -6098.661219439872 -5766.500834849579 3.799793988040671  -3793.63408825154 -6283.544346136575 -109.939882902846  10397.12161111299 3003.62864016811 -6.57808916889549  -3432.971985288676 4010.350639566078 259.4184547461799  4233.842206313718 3609.689200252281 -261.2377004203363  -5509.862840534449 682.2058288974245 -217.6908210557441  -4544.048095910849 6034.627244748143 197.3205514576987  10096.36514106872 -3174.138258382377 198.456526455669  -823.9210764107605 -6641.150174089769 -65.28474442637463  -8836.994018265355 2084.91549184295 -317.388915198524  -6678.440255710429 1892.278126491609 -264.8176952402006  -3679.256718746607 5751.886301137071 274.345129393715  -8235.798475729995 -4808.323539311118 -38.77987861061197  -17.15253986793451 0.6834895714876087 -0.1800791063541558  -4921.088699959116 -3209.542975695263 5.281703368499388  7392.43891322058 1227.878247591905 -2.985313801372455  -3089.979656927816 3464.85549251539 58.88582877960082  5635.711885894989 -2475.525702502763 59.00883160055762  -4007.270213928592 413.8006823488878 -89.68740467128811  -7579.097796767747 690.8943981415665 -0.05430328180845551  1481.74130222097 3863.820238398344 -51.85578678489907  5398.266704103291 -1980.810022463309 -74.54930272602091  -4395.747191888581 -368.6407297316877 92.64839721637604  4009.59500971985 2904.734014274347 88.8199430035083  -1502.559387329256 -3344.370891536886 -95.41950784382244  1273.62355896588 -4576.78474944396 0.5078497367293773  3366.476406792834 1331.423165115721 -100.7561532134665  -1249.95768034571
[...]
<PointData  Vectors="Tidal Force"> 
<DataArray  type="Float64"  Name="Tidal Force"  NumberOfComponents="3" format="ascii">-1.6234237140049983e-25 1.5777646749812796e-14 0.0000000000000000e+00  1.5199581662231923e-25 -1.4772091114771615e-14 0.0000000000000000e+00  3.0476762485300203e-24 -2.9619598902171319e-13 0.0000000000000000e+00  4.2752210689984431e-24 -4.1549798257909885e-13 0.0000000000000000e+00  4.7438953657957882e-24 -4.6104725866638084e-13 0.0000000000000000e+00  4.6457262686742427e-24 -4.5150645103390683e-13 0.0000000000000000e+00  4.6929016315318985e-24 -4.5609130589367789e-13 0.0000000000000000e+00  4.8686698894897991e-24 -4.7317378078896076e-13 0.0000000000000000e+00  4.9089475491620028e-24 -4.7708826522537114e-13 0.0000000000000000e+00  4.8803713502508371e-24 -4.7431101632859073e-13 0.0000000000000000e+00  2.1242462345774052e-24 -2.0645014859428791e-13 0.0000000000000000e+00  1.9902053856933639e-22 -1.9342305563332525e-11 0.0000000000000000e+00  -1.5234094812813427e-22 1.4805633577740490e-11 0.0000000000000000e+00  1.5223538863474257e-22 -1.4795374516082984e-11 0.0000000000000000e+00  1.7802097391430727e-22 -1.7301410693012280e-11 0.0000000000000000e+00  -1.4982525723778236e-22 1.4561139907620477e-11 0.0000000000000000e+00  -1.4977438667678964e-22 1.4556195925748191e-11 0.0000000000000000e+00  -1.7210422266044202e-22 1.6726376520573732e-11 0.0000000000000000e+00  1.8790439719289305e-22 -1.8261955742484948e-11 0.0000000000000000e+00  1.6564871151848435e-22 -1.6098981629710539e-11 0.0000000000000000e+00  3.2066251963098190e-22 -3.1164383746503331e-11 0.0000000000000000e+00  2.9674288623635367e-22 -2.8839694739993548e-11 0.0000000000000000e+00  4.1603558349699632e-22 -4.0433451939507919e-11 0.0000000000000000e+00  3.8043789226285260e-22 -3.6973801864447490e-11 0.0000000000000000e+00  4.7445100004189208e-22 -4.6110699345946247e-11 0.0000000000000000e+00  4.2673626142978725e-22 -4.1473423913248424e-11 0.0000000000000000e+00  5.0187577521417139e-22 -4.8776044265627065e-11 0.0000000000000000e+00  4.4837140016404742e-22 -4.3576088629721198e-11 0.0000000000000000e+00  4.9922102170066985e-22 -4.8518035448936083e-11 0.0000000000000000e+00  4.3151957224235707e-22 -4.1938301860048299e-11 0.0000000000000000e+00  4.6042205714884868e-22 -4.4747261672033747e-11 0.0000000000000000e+00  3.5494927774007596e-22 -3.4496627528423960e-11 0.0000000000000000e+00  -1.5776808562910349e-22 1.5333083421020840e-11 0.0000000000000000e+00  -2.9270526640743984e-22 2.8447288624319144e-11 0.0000000000000000e+00  -2.7092022580216716e-22 2.6330055322038687e-11 0.0000000000000000e+00  3.7371189261740819e-22 -3.6320118876268218e-11 0.0000000000000000e+00  3.2323659465186785e-22 -3.1414551623421078e-11 0.0000000000000000e+00  -2.9893179843829467e-22 2.9052429611306841e-11 0.0000000000000000e+00  -4.0745964449186750e-22 3.9599977997963369e-11 0.0000000000000000e+00  1.4869415708863912e-22 -1.4451211129089724e-11 0.0000000000000000e+00  2.9689254176082375e-22 -2.8854239384000392e-11 0.0000000000000000e+00  1.5770046350323179e-22 -1.5326511396691820e-11 0.0000000000000000e+00  -1.8645551000413429e-22 1.8121142040877933e-11 0.0000000000000000e+00  -1.5473531334638489e-22 1.5038335910949603e-11 0.0000000000000000e+00  -2.9202941466853654e-22 2.8381604293730202e-11 0.0000000000000000e+00  4.8872173206624002e-22 -4.7497635897377630e-11 0.0000000000000000e+00  5.0233989209993547e-22 -4.8821150618398911e-11 0.0000000000000000e+00  3.4322010299302540e-22 -3.3356698536200195e-11 0.0000000000000000e+00  -2.7472652622782593e-22 2.6699980086729671e-11 0.0000000000000000e+00  -3.9393090825304057e-22 3.8285154150644943e-11 0.0000000000000000e+00  -4.0069841729086882e-22 3.8942871332264790e-11 0.0000000000000000e+00  -4.7545720249407013e-22 4.6208489631454003e-11 0.0000000000000000e+00  -4.6583219673839657e-22 4.5273059531056529e-11 0.0000000000000000e+00  -5.1252003978876693e-22 4.9810533566976512e-11 0.0000000000000000e+00  -4.7775783285296133e-22 4.6432082109445658e-11 0.0000000000000000e+00  -5.0454999010451755e-22 4.9035944484583959e-11 0.0000000000000000e+00  -4.4535525627293671e-22 4.3282957191206281e-11 0.0000000000000000e+00  -5.2572717061657218e-22 5.1094101393305747e-11 0.0000000000000000e+00  4.3718184751798752e-22 -4.2488604152224997e-11 0.0000000000000000e+00  4.6092953102606410e-22 -4.4796581781752429e-11 0.0000000000000000e+00  -4.5213742293003403e-22 4.3942098909975771e-11 0.0000000000000000e+00  -3.6402739417176001e-22 3.5378906830969255e-11 0.0000000000000000e+00  -3.5941492468630134e-22 3.4930632523047981e-11 0.0000000000000000e+00  -2.4225743608137014e-22 2.3544390882265026e-11 0.0000000000000000e+00  -2.3042701290541883e-22 2.2394621809898359e-11 0.0000000000000000e+00  -2.3777380583755404e-22 2.3108638136180099e-11 0.0000000000000000e+00  -3.3931046019285603e-22 3.2976730186059220e-11 0.0000000000000000e+00  -1.0585905078715808e-22 1.0288174887317989e-11 0.0000000000000000e+00  -1.9653933619491177e-22 1.9101163745329317e-11 0.0000000000000000e+00  -7.2681837504752757e-23 7.0637649763551099e-12 0.0000000000000000e+00  7.0631987925961316e-23 -6.8645452516127844e-12 0.0000000000000000e+00  -3.0075956660916877e-22 2.9230065802597035e-11 0.0000000000000000e+00  2.7397159724883228e-22 -2.6626610438072918e-11 0.0000000000000000e+00  3.6842874467043532e-22 -3.5806663015575523e-11 0.0000000000000000e+00  1.0268204260390081e-22 -9.9794094528582619e-12 0.0000000000000000e+00  2.3331296264890421e-22 -2.2675100006672344e-11 0.0000000000000000e+00  -6.8998956696805143e-23 6.7058350538821186e-12 0.0000000000000000e+00  -3.9572591233378370e-22 3.8459606082424167e-11 0.0000000000000000e+00  -1.3634406588162658e-22 1.3250936827863071e-11 0.0000000000000000e+00  -4.0002527536393126e-22 3.8877450361485030e-11 0.0000000000000000e+00  1.8478688169961034e-22 -1.7958972252926709e-11 0.0000000000000000e+00  -4.7631843000608253e-23 4.6292190167170764e-12 0.0000000000000000e+00  -2.4854629378743637e-22 2.4155589144863805e-11 0.0000000000000000e+00  2.6569767910460936e-22 -2.5822489144351237e-11 0.0000000000000000e+00  3.6878336051813041e-22 -3.5841127237876523e-11 0.0000000000000000e+00  -4.1929499459866553e-22 4.0750225906346724e-11 0.0000000000000000e+00  5.1022975598465395e-22 -4.9587946644619897e-11 0.0000000000000000e+00  -4.5986987137419882e-23 4.4693596125463633e-12 0.0000000000000000e+00  5.3667579634422589e-23 -5.2158170789585986e-12 0.0000000000000000e+00  3.8911273940472999e-22 -3.7816888439027013e-11 0.0000000000000000e+00  4.6345766241680409e-22 -4.5042284512814576e-11 0.0000000000000000e+00  2.7063889805081759e-22 -2.6302713785485903e-11 0.0000000000000000e+00  -4.5422508670307423e-22 4.4144993701146162e-11 0.0000000000000000e+00  3.8242689424568666e-22 -3.7167107964383739e-11 0.0000000000000000e+00  2.6410960611942982e-22 -2.5668148325272831e-11 0.0000000000000000e+00  -4.7763897064628346e-22 4.6420530190543105e-11 0.0000000000000000e+00  -4.5087908479177342e-22 4.3819804191314100e-11 0.0000000000000000e+00  -3.6822353800066806e-22 3.5786719495480540e-11 0.0000000000000000e+00  -1.7261736250813128e-22 1.6776247291711606e-11 0.0000000000000000e+00  3.2431805597273005e-22 -3.1519656129083712e-11 0.0000000000000000e+00  -3.9303482270528746e-22 3.8198065850110126e-11 0.0000000000000000e+00  4.2995206919346268e-22 -4.1785960181339555e-11 0.0000000000000000e+00  -3.2707147127643777e-22 3.1787253637008841e-11 0.0000000000000000e+00  -1.5355420484914711e-22 1.4923546946849485e-11 0.0000000000000000e+00  -5.0483624478671388e-22 4.9063764857153429e-11 0.0000000000000000e+00  1.0846798384378476e-22 -1.0541730529053789e-11 0.0000000000000000e+00  4.6565433453482873e-22 -4.5255773550854153e-11 0.0000000000000000e+00  1.5839048016831951e-22 -1.5393572380828734e-11 0.0000000000000000e+00  2.3028437825740535e-22 -2.2380759507215290e-11 0.0000000000000000e+00  1.0604565829297884e-22 -1.0306310801449982e-11 0.0000000000000000e+00  1.3484640207748496e-22 -1.3105382649690860e-11 0.0000000000000000e+00  1.3502869851881481e-23 -1.3123099582308252e-12 0.0000000000000000e+00  -2.7570649277324502e-22 2.6795220570448570e-11 0.0000000000000000e+00  -2.8704619363685974e-22 2.7897297575553287e-11 0.0000000000000000e+00  5.0789155777805634e-22 -4.9360703042001010e-11 0.0000000000000000e+00  -4.3342075168284772e-22 4.2123072707987113e-11 0.0000000000000000e+00  -4.6905317777946107e-22 4.5586098576965183e-11 0.0000000000000000e+00  1.5112609015459624e-22 -1.4687564586926071e-11 0.0000000000000000e+00  1.9736139460669243e-22 -1.9181057534713421e-11 0.0000000000000000e+00  5.1825745075981040e-22 -5.0368138108407681e-11 0.0000000000000000e+00  -3.8571599010570758e-22 3.7486766918223082e-11 0.0000000000000000e+00  -1.3537272146518931e-22 1.3156534307173371e-11 0.0000000000000000e+00  -3.8963240743579121e-22 3.7867393667886999e-11 0.0000000000000000e+00  -3.5065410260114812e-22 3.4079190259977281e-11 0.0000000000000000e+00  3.2393535661920850e-22 -3.1482462541487606e-11 0.0000000000000000e+00  -5.0139601532296887e-22 4.8729417608502243e-11 0.0000000000000000e+00  -4.4099319804776423e-22 4.2859019723833084e-11 0.0000000000000000e+00  3.7955572529474153e-22 -3.6888066275659810e-11 0.0000000000000000e+00  7.7495818461843597e-23 -7.5316236773588524e-12 0.0000000000000000e+00  1.1350379986225066e-22 -1.1031148821708832e-11 0.0000000000000000e+00  -5.1102348454406588e-22 4.9665087126908055e-11 0.0000000000000000e+00  5.2557024786910311e-22 -5.1078850466174289e-11 0.0000000000000000e+00  3.6336509149268532e-22 -3.5314539299426207e-11 0.0000000000000000e+00  -1.3716255226854336e-22 1.3330483461135078e-11 0.0000000000000000e+00  1.7643413266183938e-22 -1.7147189582938046e-11 0.0000000000000000e+00  2.8820562363837182e-22 -2.8009979661179984e-11 0.0000000000000000e+00  3.9710175777273942e-22 -3.8593321040083813e-11 0.0000000000000000e+00  -2.9013303898562143e-22 2.8197300310907655e-11 0.0000000000000000e+00  -5.0796903376562151e-23 4.9368232738363397e-12 0.0000000000000000e+00  4.3337062016148198e-22 -4.2118200551517329e-11 0.0000000000000000e+00  -3.0593419890424189e-22 2.9732975300022210e-11 0.0000000000000000e+00  -5.1266821723398312e-22 4.9824934560178356e-11 0.0000000000000000e+00  -3.5840182453093790e-22 3.4832171867116870e-11 0.0000000000000000e+00  2.6826904431352957e-22 -2.6072393661459803e-11 0.0000000000000000e+00  -1.8184217830577743e-22 1.7672783936653736e-11 0.0000000000000000e+00  2.6893491901746822e-22 -2.6137108349114955e-11 0.0000000000000000e+00  -1.3767261278445345e-22 1.3380054959762525e-11 0.0000000000000000e+00  4.5578335175663105e-22 -4.4296437562323620e-11 0.0000000000000000e+00  4.9665039553137673e-22 -4.8268202757230020e-11 0.0000000000000000e+00  -2.3740637996965747e-22 2.3072928940235718e-11 0.0000000000000000e+00  -3.1697754487742449e-22 3.0806250318723251e-11 0.0000000000000000e+00  -2.8530920416683710e-22 2.7728483937870540e-11 0.0000000000000000e+00  -5.3921562919572690e-23 5.2405010756187767e-12 0.0000000000000000e+00  -4.7697605210085285e-22 4.6356102804497964e-11 0.0000000000000000e+00  2.5088338343459352e-22 -2.4382725009378942e-11 0.0000000000000000e+00  5.2491533558629844e-22 -5.1015201188656262e-11 0.0000000000000000e+00  -1.6479117920460704e-22 1.6015640221006291e-11 0.0000000000000000e+00  -1.4956523846234499e-22 1.4535869336839858e-11 0.0000000000000000e+00  -4.5462810964633869e-22 4.4184162487311100e-11 0.0000000000000000e+00  3.8004928059231501e-22 -3.6936033673631361e-11 0.0000000000000000e+00  -5.3949892771941507e-26 5.2432543827147222e-15 0.0000000000000000e+00  2.5368188015554900e-22 -2.4654703866856745e-11 0.0000000000000000e+00  -9.7051299685689541e-23 9.4321717111883512e-12 0.0000000000000000e+00  -2.7386172669094968e-22 2.6615932394900811e-11 0.0000000000000000e+00  1.9566529866269785e-22 -1.9016218235969171e-11 0.0000000000000000e+00  -3.2706691386540453e-23 3.1786810713693405e-12 0.0000000000000000e+00  -5.4608130733067666e-23 5.3072268745440086e-12 0.0000000000000000e+00  -3.0539568536269183e-22 2.9680638523398404e-11 0.0000000000000000e+00  1.5656283517071661e-22 -1.5215948160438960e-11 0.0000000000000000e+00  2.9137253161339324e-23 -2.8317763481805506e-12 0.0000000000000000e+00  -2.2958968100801321e-22 2.2313243628862526e-11 0.0000000000000000e+00  2.6433858523053264e-22 -2.5690402229148326e-11 0.0000000000000000e+00  3.6174844230859458e-22 -3.5157421231451018e-11 0.0000000000000000e+00  -1.0523542451523037e-22 1.0227566218505924e-11 0.0000000000000000e+00  2.9324316408263409e-22 -2.8499565546440869e-11 0.0000000000000000e+00  4.0164340262727603e-23 -3.9034712080265224e-12 0.0000000000000000e+00  -2.8198919181575281e-22 2.7405820288026493e-11 0.0000000000000000e+00  1.3198459429514868e-22 -1.2827250749398637e-11 0.0000000000000000e+00  -1.2799427300236371e-23 1.2439441459484421e-12 0.0000000000000000e+00  -1.8854588358914026e-22 1.8324300191857501e-11 0.0000000000000000e+00  -3.7724585694051272e-22 3.6663575980136869e-11 0.0000000000000000e+00  -2.2733363937328517e-22 2.2093984616821879e-11 0.0000000000000000e+00  -3.0766823221575647e-22 2.9901501636094946e-11 0.0000000000000000e+00  -1.5371556183437825e-22 1.4939228826395960e-11 0.0000000000000000e+00  1.2252168456433320e-22 -1.1907574353950141e-11 0.0000000000000000e+00  -2.6914985637565774e-22 2.6157997570342891e-11 0.0000000000000000e+00  1.3025770503336189e-22 -1.2659418725550097e-11 0.0000000000000000e+00  -1.8846865394811739e-23 1.8316794437295943e-12 0.0000000000000000e+00  3.0948171228717497e-22 -3.0077749202936750e-11 0.0000000000000000e+00  -1.2348403733197518e-22 1.2001102998909387e-11 0.0000000000000000e+00  1.3943029536403246e-22 -1.3550879708715354e-11 0.0000000000000000e+00  3.8279432011358319e-22 -3.7202817160328117e-11 0.0000000000000000e+00  3.9785028174163234e-22 -3.8666068201918877e-11 0.0000000000000000e+00  3.6302303931864950e-22 -3.5281296108967758e-11 0.0000000000000000e+00  -3.0560729704255983e-22 2.9701204530315076e-11 0.0000000000000000e+00  3.5673997075632819e-22 -3.4670660478688588e-11 0.0000000000000000e+00  -4.0484258199934368e-22 3.9345632276800040e-11 0.0000000000000000e+00  1.6854722493562893e-22 -1.6380680858327075e-11 0.0000000000000000e+00  -1.9734673698742334e-22 1.9179632997563779e-11 0.0000000000000000e+00  -2.0772741076171769e-22 2.0188504572020512e-11 0.0000000000000000e+00  -1.1221245128731681e-22 1.0905645901735360e-11 0.0000000000000000e+00  </DataArray> 
</PointData> 
</Piece>
</UnstructuredGrid>
</VTKFile>