<?xml version="1.0"?>
<VTKFile type="UnstructuredGrid"  version="0.1"  >
<UnstructuredGrid>
<Piece  NumberOfPoints="201" NumberOfCells="657">
<Points>
<DataArray  type="Float64"  NumberOfComponents="3"  format="ascii">-0.01014864779752405 -0.007697715394991008 1669.154959027171  -0.01416158410990525 0.08763177317656301 -1669.155145868276  88.48212546491334 0.1199069222124581 -1587.204156580552  168.0507643929542 0.1513038142038998 -1349.576495737098  230.8362148632027 0.009536283221085629 -980.0065664509272  270.8798541585213 -0.02726088611438855 -514.9947246025114  284.6812696646299 -0.0601585514931 -0.01032957220752763  270.8694681886269 -0.01164291993768257 515.0026262172321  230.8138077752594 0.06257275063281066 979.9385733350593  168.0652199972388 0.03739529771498172 1349.534960274714  88.49423525049907 0.0114909909199315 1587.193369267535  112.1986822901724 -537.8151180822247 -1451.403328534616  111.4003785196607 417.7976071792316 1487.179697025866  271.3938023218948 -482.9874264411754 -247.1395515646559  196.0136994201339 -524.2837563976257 1112.522778369271  247.0930398996399 487.5389655976212 701.1519885801662  246.0764250990317 487.5369590789833 -713.4227573315781  125.2385340272588 481.6408135416184 -1432.138499361156  43.19449299623216 -480.6432811805105 1587.901767930532  194.67541491625 -483.1394855554604 -1135.946605587807  136.0898890111938 -945.9945651788536 -1175.596191422338  201.8253286856052 -930.0208268695378 -809.2449852567108  139.0994723695212 -1326.735697100018 -778.6928717693703  195.5610126101239 -1248.12882125051 -383.2295314089968  123.3472577036229 -1579.906987201087 -326.1195192334038  175.1372949352547 -1420.13432333272 82.406258475467  92.42244082037459 -1687.091077065129 148.9149628958229  133.6542494778094 -1466.412542943167 564.318734136568  48.28423467083818 -1640.708539200746 600.7415773692962  85.49063495971859 -1337.907065009117 991.1423140063947  -3.335660282194888 -1436.190344889 993.5783212116717  203.8792799691394 -1154.836510498124 475.4099960121297  194.6785576336888 483.1245567991843 1135.969387967532  197.7893660002478 935.9193451000567 837.0592396869745  239.0988169741886 899.1070359556898 378.6426176350838  31.91599982931 -1066.487718491177 1327.08184298915  116.5848857093503 -936.4207279160545 1250.553666005798  136.0466679987281 891.9224694539137 1211.812656462725  131.535347251478 1305.737535687381 849.9488771243207  271.8941775503083 -471.1489626728773 247.0880863574823  240.6740223667161 -972.1227359318069 28.63391700582528  247.6196837889698 -487.9997219636559 -694.3095983180747  43.18440442031468 480.7383759497368 -1587.975423124704  192.7771560234373 470.9404412563775 -1151.543850758825  196.2740404514295 930.7611206268106 -853.8786426017845  59.9113244408848 -1591.781997401619 -676.4450809678614  -41.96542002064913 -1660.199201183568 568.7795147790802  58.13311020031833 -968.2800848474066 -1362.208525786989  237.4614657769899 909.7737643455554 -391.3384004901927  178.5759468950931 1310.791517834832 -471.9328220496264  126.8843156060158 1272.859596237761 -914.3580625804461  100.5591867788618 1585.424738091084 -509.6060502340015  44.37527478681758 1486.652650009103 -890.721911961326  13.05732890416828 1714.935786047913 -462.8157343384491  -45.54058362587562 1529.837993877483 -822.3716347734735  -75.25003335669406 1685.261135758593 -348.9777935680455  -132.1493616617589 1440.38305536863 -629.9194252647837  -14.49338413916722 1784.199045464526 30.89826944641175  -92.14851559827305 -1381.968644316315 915.8250290644771  -127.4372385440744 -1530.601551846751 453.6202203058945  -155.2003500578933 1498.569616539895 -170.2684718749898  -204.0639720408949 1174.014196838607 -431.3148681793334  -217.268050486982 1172.326864172398 38.57998437695337  -253.6708516616271 774.7216026980602 -269.1467947615996  -257.0543422540766 735.4855658906439 251.1006116116792  -225.5925062059402 732.9171141130925 -766.6262058556194  -208.8156296632505 1084.028688444643 541.1895902637743  -267.6560585507644 321.3571004751608 -488.3738629940183  -237.5304948340359 603.7996317918128 737.7823521315474  -228.1985643155141 205.7806408479829 -983.0306716646309  -255.9663094499422 -233.1305886916012 -701.4795316231632  -177.4162366261887 907.2149846591005 1002.799027119821  -39.65578891512497 -738.3496291729925 1502.660750251853  -173.1694362693191 -1184.786106389395 746.1307405901895  -205.2398566493175 -314.8171165219967 -1122.480747096463  -222.0402762957986 -740.024467109926 -795.6759167060278  -273.681412274406 204.0066027677045 421.381022928831  -96.24323438014632 1190.824702175966 -1113.701748330659  -195.5657334371102 387.5022631818057 1161.883670323348  61.94083999391267 1202.458617070159 1182.230442398385  -264.1706943226718 -607.9503489789164 -282.6478249849237  -166.4659091537297 125.5721380139055 -1351.427713320802  -129.9910032311861 688.84824058394 1341.578378992834  -160.3784212783619 -793.5049102272053 -1169.126963261275  -168.3696987463783 -1182.914180043296 -784.744160411668  -142.1805025767218 1331.075504772735 753.2172857060948  -73.00133772457839 -1726.109235291678 107.8389925263843  -136.6890359228952 115.9434979571931 1461.92588116933  -201.5635535118869 -167.9288815088643 1171.164493089061  -97.31744783499144 -1183.191271676546 -1117.568535335201  -97.98889355700902 -1509.85026820718 -693.0840614129161  -83.61450165422212 -748.2791390158071 -1435.94758384286  146.3912245257215 1542.257653947721 -47.24909739246257  -196.0139095795368 -1272.629607545546 296.3790741731851  -234.9248434951963 -860.6774619512469 517.7028002837901  51.75075090300571 1549.543729183282 776.8956170698195  -18.66147174355859 1396.436454454868 1036.564053783568  -6.433278322655518 1051.29352853891 1349.819549106869  -77.61795860690515 444.2234721456484 1552.227424952355  -129.6992246756734 -966.7632455146938 1185.150327635002  67.89217982057674 1175.643536095902 -1194.76195387846  -161.5402938962115 -1430.85231456395 -365.2157867963192  -21.2896292476773 900.7733411227993 -1436.692862315256  -47.05655984751593 386.0827887969846 -1606.603195050128  -32.22559534933488 1668.456059438456 568.7093997564608  -60.54432312892293 -273.4612304061712 1611.229759778277  -20.87919332583145 -1462.583026005955 -952.0947029787952  -130.7384353676327 -439.9220264852336 1426.828890634686  -201.4234271848386 -710.894488181048 983.5097320106537  -249.9021891430491 -342.7014225217055 738.0246776128056  -273.2347076560813 -445.6859329416403 233.9156852016092  -283.4383751127858 -58.0396413476687 -144.7481508852502  -110.2085807742503 766.4203308040836 -1365.16745326343  -167.0199707889975 849.59241427753 -1101.527286931518  -24.62984305133169 -1681.104146643943 -548.2296887161054  -9.801752446153907 1318.104585428667 -1126.292183882309  115.2321258166842 1572.272992345592 437.2170461240565  246.0275985583444 -466.4275950528504 726.4155716788317  14.33379164699168 -504.2673541916134 -1599.249317445681  45.80203681327285 -1743.003372213223 -258.1115866381309  -87.65043445814912 1140.147347828851 1181.518232741353  272.5006231430332 452.768664191522 -252.374948627353  183.8116865142905 1299.240507499324 430.0628712528528  216.3744365423142 1179.391849372781 -19.08147472068763  -218.9368569590662 -1066.480400449413 -422.275622610012  -95.90505801615279 1681.422836403382 130.4048149086135  -160.2972599746446 1452.160987158082 306.0439923042883  -15.59823449054058 -1090.033137682516 -1320.108805415105  -66.76774817713356 -198.8377330098162 -1612.409183642587  -140.6095874815041 -319.7234970874232 -1422.402503187552  66.92938584728843 1736.732809413049 -85.65483286109398  7.862613827415769 -1775.042146226771 186.2517048300553  158.6749536545423 -1130.426367050668 909.2185347531898  272.9706978810647 458.5865007968454 223.995240117189  125.3186134588353 -478.0360243223292 1432.894343520001  -242.0720316932502 -957.7728956081138 41.20620581539855  -51.52900897977865 -1177.045310965035 1220.647260937436  139.8206771056976 864.6638008155874 -1214.216176335551  -244.337351195985 143.1819215237311 849.2948927161558  64.73607996469877 -1329.110815949551 -1051.911116997237  70.37723162988492 856.3572927484208 1407.292790040466  41.2679488318248 1728.162961327566 352.1816469529833  -178.6784191624486 1122.539566188139 -784.3203460231201  239.2385871492822 -865.7760429046102 -436.176828029245  -4.388041509985641 463.4528355148299 1611.955322809633  216.8648075013022 -841.3821974193315 757.9403953378142  -276.7273881089568 429.0379096997679 -37.91529973217366  -149.2172980323691 -1532.688048361531 16.13963999918373  -91.36480397365654 -1670.536496470046 -277.6137819881209  256.3638252201038 794.3017461418547 -11.61262034727322  -64.12756957639843 878.531477936725 1405.464014893176  79.75710412230882 797.82011957575 -1420.182847092158  -96.57264083295195 131.1324790994688 -1566.398332824112  -105.6483579843797 1564.247757987904 531.9617890258234  243.2003574317551 -805.4036632199715 458.838261475954  -19.73898420504477 -1773.64227687629 -168.2991477924871  -183.4770773271983 465.1091589735601 -1204.531164236124  -125.5394358840781 394.2860090240449 -1454.169223609805  -80.69813924113566 1436.915169183238 877.2854917441637  -202.1336859646418 -1271.446101504878 -93.53449091764531  -0.01457096009657149 0.000872047446889085 -0.0227703620661547  -91.03716253795717 -704.1115647957239 46.21064826309886  137.2860615038242 274.897142648827 -7.656400123230379  -54.86794870374494 739.5697960715347 367.5034292230796  102.5049057650699 -524.6951311466004 334.1556057198557  -66.73305659412435 76.65315927079357 -742.2090711535441  -141.1330065584559 139.959460615442 0.5991912784093215  27.08116163803998 836.3248949055402 -319.2260656701963  95.49388294643553 -412.4740359627024 -499.4823193905167  -74.227121854763 -78.31155494470309 719.863095847188  71.32084308149766 622.1962419342606 580.8132135209203  -26.35824362310704 -709.6596795724524 -631.1060658143069  23.63727816756935 -1025.253455368733 3.076922806376653  56.73540791072591 272.13752999
[...]
<PointData  Vectors="Coriolis"> 
<DataArray  type="Float64"  Name="Coriolis"  NumberOfComponents="3" format="ascii">-6.6419350545085177e-14 9.8612806352583460e-14 0.0000000000000000e+00  9.0121873333158309e-13 1.3754133486949121e-13 0.0000000000000000e+00  1.2273425429061538e-12 8.7565862645941570e-12 0.0000000000000000e+00  1.5408372670198770e-12 1.9135599211106432e-11 0.0000000000000000e+00  9.2696613278885677e-14 3.0911087728169607e-11 0.0000000000000000e+00  -2.9999583673618953e-13 4.1086636348011783e-11 0.0000000000000000e+00  -6.3827597508003758e-13 4.4547693869013304e-11 0.0000000000000000e+00  -1.1329116401515948e-13 4.1193323027259790e-11 0.0000000000000000e+00  6.4626873414283792e-13 3.1138526733894638e-11 0.0000000000000000e+00  3.8574040812689892e-13 1.9000866516388427e-11 0.0000000000000000e+00  1.2379840323876871e-13 8.6423329802692654e-12 0.0000000000000000e+00  -1.0559049429460975e-10 1.0087350254315191e-11 0.0000000000000000e+00  8.2450603557860650e-11 1.0698443136797602e-11 0.0000000000000000e+00  -1.3688451255857262e-10 3.8181335611245533e-11 0.0000000000000000e+00  -1.2134818968643465e-10 2.1488148722005291e-11 0.0000000000000000e+00  1.2861717401610221e-10 3.2336531974430603e-11 0.0000000000000000e+00  1.2866558990365960e-10 3.2089074899450792e-11 0.0000000000000000e+00  9.7106206189910531e-11 1.1701047042664700e-11 0.0000000000000000e+00  -8.7037893978980710e-11 3.6374460196917451e-12 0.0000000000000000e+00  -1.1226729462759911e-10 2.2034343929363087e-11 0.0000000000000000e+00  -2.0009048632038345e-10 9.5461096574182173e-12 0.0000000000000000e+00  -2.2443855596622487e-10 1.7882909195560751e-11 0.0000000000000000e+00  -2.9250141519125069e-10 5.1648472792867373e-12 0.0000000000000000e+00  -3.0495717023514822e-10 1.1505960454270175e-11 0.0000000000000000e+00  -3.5098946667103128e-10 8.4835395422180007e-13 0.0000000000000000e+00  -3.3821287977136285e-10 6.1250498395496129e-12 0.0000000000000000e+00  -3.6590591705309628e-10 -1.0594143265622985e-12 0.0000000000000000e+00  -3.2566732648022104e-10 2.5200682052402836e-12 0.0000000000000000e+00  -3.3912157991461921e-10 -4.6759803911592199e-13 0.0000000000000000e+00  -2.7325642153090154e-10 2.0653969071630576e-12 0.0000000000000000e+00  -2.8376353877300951e-10 5.9672374213752491e-14 0.0000000000000000e+00  -2.8534447899297902e-10 1.4735959361450620e-11 0.0000000000000000e+00  1.1211399136769856e-10 2.2009668612881169e-11 0.0000000000000000e+00  2.2350429623182388e-10 1.6889486189525615e-11 0.0000000000000000e+00  2.3720120689400420e-10 2.4665941970040091e-11 0.0000000000000000e+00  -2.0501487090335767e-10 1.4203208038892027e-12 0.0000000000000000e+00  -1.9207487280689154e-10 8.0827602876411477e-12 0.0000000000000000e+00  1.8752546365356941e-10 9.8352131195152483e-12 0.0000000000000000e+00  2.8300286774702628e-10 5.0029091809870618e-12 0.0000000000000000e+00  -1.3285297163156336e-10 3.8449049986224420e-11 0.0000000000000000e+00  -2.5856827039397161e-10 2.4374192720522379e-11 0.0000000000000000e+00  -1.2900697325241151e-10 3.2606284784377316e-11 0.0000000000000000e+00  8.7999066089765805e-11 3.7351463283749205e-12 0.0000000000000000e+00  1.0865361684149839e-10 2.1425923270209358e-11 0.0000000000000000e+00  2.2106273363163481e-10 1.6783596421294202e-11 0.0000000000000000e+00  -3.2943974198908222e-10 -8.7417081937306892e-14 0.0000000000000000e+00  -3.4310387826910037e-10 5.7368684308345565e-13 0.0000000000000000e+00  -1.8503417232151640e-10 3.3322413937883954e-12 0.0000000000000000e+00  2.3948403641528837e-10 2.4532030608986833e-11 0.0000000000000000e+00  3.0945027427786056e-10 8.3446860026634240e-12 0.0000000000000000e+00  2.7246785299451529e-10 5.1120369278513258e-12 0.0000000000000000e+00  3.4083657249915536e-10 1.7294254759223708e-13 0.0000000000000000e+00  2.9943955249052824e-10 5.9586093521971325e-13 0.0000000000000000e+00  3.5378851494635525e-10 -4.9811333403121708e-13 0.0000000000000000e+00  3.1036010091391844e-10 -1.0614204309594497e-13 0.0000000000000000e+00  3.5762004432264340e-10 8.8795548068707815e-13 0.0000000000000000e+00  3.1713283345952168e-10 -3.1346185938717002e-12 0.0000000000000000e+00  3.7274430556762684e-10 3.7177556986141184e-13 0.0000000000000000e+00  -2.8628853997890597e-10 -1.9935850963419914e-12 0.0000000000000000e+00  -3.3954525393214109e-10 -1.1718571061557670e-12 0.0000000000000000e+00  3.4677055121832258e-10 -3.2448127536907177e-12 0.0000000000000000e+00  2.9012163223352967e-10 -1.3794173731613948e-11 0.0000000000000000e+00  2.9879063174490873e-10 -1.5658724077076474e-11 0.0000000000000000e+00  2.1029643711890317e-10 -3.0339053928707059e-11 0.0000000000000000e+00  2.0089270689395618e-10 -3.1684002982978295e-11 0.0000000000000000e+00  1.8532265582269760e-10 -2.4665865146574635e-11 0.0000000000000000e+00  2.6865731751769450e-10 -1.6288520241052969e-11 0.0000000000000000e+00  8.9360076146554931e-11 -3.9267411507390994e-11 0.0000000000000000e+00  1.5701185511809712e-10 -2.8725160898202655e-11 0.0000000000000000e+00  5.2107444175718572e-11 -2.9862554611700007e-11 0.0000000000000000e+00  -6.2198925416492840e-11 -3.6327969205270655e-11 0.0000000000000000e+00  2.0639335194153652e-10 -1.4298781059577082e-11 0.0000000000000000e+00  -1.3631397381351867e-10 -2.8603674197260394e-12 0.0000000000000000e+00  -2.7461633374855865e-10 -1.0343905641360203e-11 0.0000000000000000e+00  -7.4176345405479373e-11 -2.5056824225710306e-11 0.0000000000000000e+00  -1.8519320231191185e-10 -2.3940988495948572e-11 0.0000000000000000e+00  5.7325023766385694e-11 -4.1346920484631063e-11 0.0000000000000000e+00  2.4230603455619049e-10 -4.2013137670190607e-12 0.0000000000000000e+00  8.9465020993001836e-11 -2.2539946216962688e-11 0.0000000000000000e+00  2.3655646439452889e-10 2.4529603019902162e-12 0.0000000000000000e+00  -1.6936688598675397e-10 -3.5044386189569383e-11 0.0000000000000000e+00  2.7944664314175194e-11 -1.8519572175116639e-11 0.0000000000000000e+00  1.4261705121867280e-10 -1.1431649809104881e-11 0.0000000000000000e+00  -1.7294832549791554e-10 -1.3605047282254185e-11 0.0000000000000000e+00  -2.7131530937262372e-10 -9.7840740184855337e-12 0.0000000000000000e+00  2.9525869737769350e-10 -5.4059278203694346e-12 0.0000000000000000e+00  -3.6941442613840291e-10 1.3066807520707999e-12 0.0000000000000000e+00  2.3657007513776231e-11 -1.4169726705165383e-11 0.0000000000000000e+00  -3.8438752009400244e-11 -2.4952012860091764e-11 0.0000000000000000e+00  -2.4068883761617019e-10 -4.3542172042722614e-12 0.0000000000000000e+00  -3.2074198446194504e-10 -8.4415353743937703e-13 0.0000000000000000e+00  -1.4320053357993878e-10 -6.2199883829963731e-12 0.0000000000000000e+00  3.5279175301235534e-10 2.0555400159493310e-12 0.0000000000000000e+00  -3.1272550545362667e-10 -1.1331819198474039e-11 0.0000000000000000e+00  -2.2389690549682635e-10 -2.4614051708753389e-11 0.0000000000000000e+00  3.1760877235528621e-10 3.0449479437460314e-13 0.0000000000000000e+00  2.7584367930131451e-10 -3.0860144105974788e-13 0.0000000000000000e+00  1.9900199645952595e-10 -4.2594946631220474e-13 0.0000000000000000e+00  8.4905128475883494e-11 -7.1533304500534259e-12 0.0000000000000000e+00  -2.0312828072735564e-10 -9.3156241918504735e-12 0.0000000000000000e+00  2.3206649203042768e-10 2.8944763031462948e-12 0.0000000000000000e+00  -3.3403792885016042e-10 -5.1959745603280906e-12 0.0000000000000000e+00  1.6710652573882077e-10 -1.2365723186088558e-12 0.0000000000000000e+00  7.0455211978964510e-11 -3.9382908468977814e-12 0.0000000000000000e+00  3.4431292913525065e-10 5.2380078042626361e-13 0.0000000000000000e+00  -5.1859357901060533e-11 -5.5104980907267404e-12 0.0000000000000000e+00  -2.9153970959669838e-10 -1.5394493954288842e-13 0.0000000000000000e+00  -8.7889207604537746e-11 -1.2670053220184461e-11 0.0000000000000000e+00  -1.6829484764580431e-10 -2.0709266705185035e-11 0.0000000000000000e+00  -9.1255991552162688e-11 -3.4326685453684589e-11 0.0000000000000000e+00  -1.2649076432743838e-10 -3.9425484177941805e-11 0.0000000000000000e+00  -1.7185517198772704e-11 -4.4540876344249233e-11 0.0000000000000000e+00  1.5310336950685853e-10 -8.4988649299242510e-12 0.0000000000000000e+00  1.8783464121778223e-10 -1.4156269373034624e-11 0.0000000000000000e+00  -3.4653677572988311e-10 4.1435324455663075e-13 0.0000000000000000e+00  2.5688885835968747e-10 -3.4577327844717960e-13 0.0000000000000000e+00  3.4409021195580373e-10 6.5061966938879055e-13 0.0000000000000000e+00  -1.2317600762101888e-10 3.1748462682525068e-11 0.0000000000000000e+00  -8.9833311930591366e-11 1.1471165120342059e-12 0.0000000000000000e+00  -3.6727212058225817e-10 -9.8847317260714132e-13 0.0000000000000000e+00  2.2863550939953923e-10 -4.0006817418762407e-12 0.0000000000000000e+00  1.2763129100390784e-10 3.8883057037625990e-11 0.0000000000000000e+00  3.1026513308567927e-10 9.1816602722470254e-12 0.0000000000000000e+00  3.0022273663503281e-10 1.5447814745964069e-11 0.0000000000000000e+00  -2.7006466198693790e-10 -1.8118560000991150e-11 0.0000000000000000e+00  3.6484059869545479e-10 1.0820606215418051e-12 0.0000000000000000e+00  3.3653305517139822e-10 -4.2030820668144334e-12 0.0000000000000000e+00  -2.0674225031902564e-10 -8.4534525880591147e-13 0.0000000000000000e+00  -3.6700991738568944e-11 -6.1622071444236013e-12 0.0000000000000000e+00  -6.4998092198040137e-11 -1.4441286189344836e-11 0.0000000000000000e+00  3.7010180499258331e-10 -1.3285497849573160e-12 0.0000000000000000e+00  -3.7107530660011032e-10 -3.4702236116987032e-13 0.0000000000000000e+00  -2.5305743860848020e-10 9.8965246758445504e-12 0.0000000000000000e+00  1.2951019151193783e-10 3.9071807903329751e-11 0.0000000000000000e+00  -9.5013545726947727e-11 1.1612943858658866e-11 0.0000000000000000e+00  -2.5651129589496424e-10 -2.4724653037927550e-11 0.0000000000000000e+00  -2.3018630219404202e-10 -2.2844064350168623e-12 0.0000000000000000e+00  1.8145414778410089e-10 1.0630442025763128e-11 0.0000000000000000e+00  3.7909785949442192e-11 -3.3995598133563571e-11 0.0000000000000000e+00  -2.6586600432596327e-10 1.7587050294565305e-12 0.0000000000000000e+00  1.6457582715243358e-10 4.5111711681263124e-12 0.0000000000000000e+00  3.6063449853266500e-10 -7.7529665251130027e-13 0.0000000000000000e+00  2.6062170609595798e-10 -1.1506223553978009e-11 0.0000000000000000e+00  -2.2771750267445170e-10 2.5643466760987819e-11 0.0000000000000000e+00  8.5548126483418769e-11 -3.6733225314492049e-13 0.0000000000000000e+00  -2.0914405036756299e-10 2.1538824444627093e-11 0.0000000000000000e+00  1.2260301365551933e-10 -3.9992896753937149e-11 0.0000000000000000e+00  -3.5287431187356917e-10 -2.3128504866329694e-12 0.0000000000000000e+00  -3.6104926613367263e-10 9.6242476716651396e-13 0.0000000000000000e+00  2.1714283983021259e-10 3.0205791497757425e-11 0.0000000000000000e+00  1.6833260557831420e-10 -4.1414150586582335e-12 0.0000000000000000e+00  1.5296746787777339e-10 5.5653890213558193e-12 0.0000000000000000e+00  2.6543542921840893e-11 -9.1646229712070985e-12 0.0000000000000000e+00  3.3758373909668718e-10 -6.3938538010640112e-13 0.0000000000000000e+00  -2.1358728872527203e-10 2.7213682420220173e-11 0.0000000000000000e+00  -3.7155952355156287e-10 4.4820774760099960e-13 0.0000000000000000e+00  1.0447525090828958e-10 -1.9648583241179291e-11 0.0000000000000000e+00  7.8858061814231964e-11 -1.2014035758549796e-11 0.0000000000000000e+00  2.9671173555591818e-10 -1.5678574461827649e-12 0.0000000000000000e+00  -3.1574783113230161e-10 -1.1709005738687173e-11 0.0000000000000000e+00  -6.9097362641599334e-15 1.4887040338565982e-13 0.0000000000000000e+00  -1.9828795262018544e-10 -1.1583224767267110e-11 0.0000000000000000e+00  8.0594338934540849e-11 2.1267671533235330e-11 0.0000000000000000e+00  2.0309948832536006e-10 -6.7011599713193162e-12 0.0000000000000000e+00  -1.4840380276950134e-10 1.4098857887418554e-11 0.0000000000000000e+00  2.0212431321373838e-11 -9.6850348879080920e-12 0.0000000000000000e+00  4.1523537855148199e-11 -2.2547108066483017e-11 0.0000000000000000e+00  2.2731269840698799e-10 3.1285903707078243e-12 0.0000000000000000e+00  -1.1571852400514355e-10 1.3515261213759277e-11 0.0000000000000000e+00  -2.1373107602171071e-11 -1.1056892821706088e-11 0.0000000000000000e+00  1.6838106073187783e-10 9.1702810345713268e-12 0.0000000000000000e+00  -1.8818707292024990e-10 -3.1701215549811329e-12 0.0000000000000000e+00  -2.7450830342748309e-10 2.2238530790579136e-12 0.0000000000000000e+00  7.1799999408700292e-11 7.8202726982511165e-12 0.0000000000000000e+00  -2.0869704610290910e-10 -2.6099045695401651e-12 0.0000000000000000e+00  -2.4896729866462242e-11 7.0394805152048153e-12 0.0000000000000000e+00  2.1379063635156313e-10 -1.1642996231228515e-11 0.0000000000000000e+00  -1.0456877403115458e-10 -2.0440521276840390e-11 0.0000000000000000e+00  1.3682787840558394e-11 2.1635227267074170e-11 0.0000000000000000e+00  1.2180700271661824e-10 -2.3326163086374705e-12 0.0000000000000000e+00  2.8568681523414257e-10 2.4469193325362308e-12 0.0000000000000000e+00  1.7609463056262135e-10 1.5453854802041079e-11 0.0000000000000000e+00  2.4716620096981236e-10 1.3176477150284801e-11 0.0000000000000000e+00  1.1411839424567802e-10 -1.9766381188675931e-11 0.0000000000000000e+00  -9.9651729554769198e-11 2.5773467188865700e-11 0.0000000000000000e+00  1.8128402298431487e-10 -3.7730798847804085e-12 0.0000000000000000e+00  -1.0783769335036705e-10 -2.4161135763670599e-11 0.0000000000000000e+00  1.8205942287883557e-11 2.4459853513563760e-11 0.0000000000000000e+00  -2.4352266999825657e-10 1.3320202182267780e-11 0.0000000000000000e+00  9.1927607293020649e-11 -2.2270765922925993e-11 0.0000000000000000e+00  -8.7347775110365206e-11 4.5699480027073419e-12 0.0000000000000000e+00  -2.8981584831122781e-10 -4.4539734418039773e-12 0.0000000000000000e+00  -3.0123766926876629e-10 -3.8692121248151407e-12 0.0000000000000000e+00  -2.6609447751400205e-10 5.5037380208397393e-12 0.0000000000000000e+00  2.4203106444229434e-10 -1.5328824045639199e-11 0.0000000000000000e+00  -2.5996083626915583e-10 4.8200106467093864e-12 0.0000000000000000e+00  3.0664819440530015e-10 -2.6341477501846931e-12 0.0000000000000000e+00  -1.1456471311559445e-10 -1.1763496607280891e-11 0.0000000000000000e+00  1.6127710665151093e-10 2.1776399412559597e-11 0.0000000000000000e+00  1.5468226943541737e-10 2.8159805738735923e-12 0.0000000000000000e+00  8.4886982309628728e-11 9.1068636551946558e-12 0.0000000000000000e+00  </DataArray> 
</PointData> 
</Piece>
</UnstructuredGrid>
</VTKFile>