<?xml version="1.0"?>
<VTKFile type="UnstructuredGrid"  version="0.1"  >
<UnstructuredGrid>
<Piece  NumberOfPoints="201" NumberOfCells="657">
<Points>
<DataArray  type="Float64"  NumberOfComponents="3"  format="ascii">0.02095141985587939 -0.01736570103242305 2659.589253698751  -0.001649176852146673 0.003147822683025268 -2659.58946981328  851.9441724159391 0.002528530188780978 -2529.412649796704  1620.474659398907 -0.01780009256676148 -2151.676309027889  2230.396332214647 -0.002717095473370763 -1563.24821772054  2622.020809091411 -0.003604573523059742 -821.8569805775228  2756.98824145221 0.00598336483909159 0.03639309830617705  2622.035166753823 -0.01139527358728981 821.8945078992086  2230.43767471138 0.001117163528106892 1563.278205714901  1620.522158331946 0.004857024470097298 2151.646779032362  851.9369561915663 0.008174068575982719 2529.400987687503  1079.474277856926 -136.7047588891702 -2312.536003027941  1072.409840413368 106.1980299074887 2369.908335553631  2624.48394757396 -121.7191617779248 -394.2977208265438  1889.698946973716 -132.78968824129 1773.560242289735  2387.119791724054 123.1060120283647 1118.440461977455  2377.191336904629 123.10500197446 -1137.897416844255  1205.320825809941 122.3638113566782 -2282.053322298062  415.3320608582445 -122.3700612598879 2529.646668085601  1877.362740283152 -122.3653198184274 -1811.032098539288  1307.176980530396 -239.804180958108 -1872.130832761431  1942.227360839777 -235.050259852234 -1289.387345843113  1332.338695496966 -335.4205044953553 -1238.931365717719  1877.107906243139 -314.9420970811277 -610.0631021787633  1178.388651602504 -398.7102946419156 -518.4357787148979  1677.486372934555 -358.2115601542784 131.1295702391666  881.4801671247395 -425.6822566626695 236.6425836743786  1278.159788550302 -370.3673114700283 897.4934887090764  460.5339631256427 -414.5174967158684 954.6035205682373  817.7998500511447 -338.7670336678432 1576.543683463386  -31.76188620550906 -363.6770987436008 1579.811514859257  1959.343743134856 -291.4553968743952 757.136573367426  1877.403392407587 122.3736567708501 1811.04531017044  1902.828606324569 236.6103089638934 1333.608950509932  2304.275549840932 226.7786171166571 603.5886959452062  305.7857262785962 -270.7294032954198 2112.255742290418  1119.778403674714 -237.5093718568515 1991.401662110142  1306.999464158619 226.1585064836624 1929.955171822324  1259.99280459668 330.264138281299 1352.395282912634  2629.523279097295 -118.7536057947905 394.2530703977881  2319.217865331617 -245.0690786352222 45.67890805136367  2392.436512187832 -123.2198499018482 -1107.416221695726  415.3491689018157 122.3570606757635 -2529.661856892853  1858.653392196692 119.2910256873418 -1835.841149323126  1888.205248047492 235.3465551219526 -1360.336784166548  571.8627637245874 -402.2787817747738 -1075.050858255809  -400.139160590563 -419.3895136746041 903.7320814018152  557.7034969293227 -245.8972302174411 -2168.58123386631  2288.565716832651 229.4768154210195 -623.7438302304913  1712.144122312339 330.9003064116437 -751.0741910838329  1215.635901654842 322.1042770345767 -1454.869340529453  960.1778625187754 400.3757868353328 -810.0437043855694  424.1204694337292 376.1855599102429 -1416.086579607721  124.1936819695109 433.0753320013569 -735.2178212902138  -434.8265529597649 386.9151434244109 -1307.283009364834  -717.6674409574719 425.4278314560406 -554.4647365681989  -1264.321284442985 363.9126577279478 -1001.874435650491  -138.0466493117946 450.2051101107554 49.12165409890601  -881.3276487147217 -349.736064021333 1456.623460719961  -1217.634895992071 -386.4444250048126 721.2564327020802  -1484.607608223335 378.0695495870779 -270.7602064734699  -1960.230990631834 296.2643176605005 -686.8654660846753  -2088.025341191011 295.6258203434342 61.45501955978507  -2448.422180951965 195.3394350626854 -429.2000327826461  -2481.895790902446 185.4304863899453 400.4379672785061  -2175.062170266915 185.1750862936148 -1222.127516198552  -2007.730237174214 273.665863929829 862.0707628531787  -2589.663167393032 81.04453226526383 -779.2857338777912  -2292.596136040042 152.4923483759852 1176.585537715846  -2204.282693792235 52.02887781494928 -1568.092155348571  -2475.287916553953 -58.87146172191108 -1119.225441982263  -1705.923541487773 229.6296180444454 1597.471764748281  -380.9151816463118 -187.7862152727837 2393.077005096749  -1662.155687596092 -299.4051110807534 1187.916112469385  -1980.83492177362 -79.7351788596719 -1790.016656222938  -2140.518312445737 -187.0013247136531 -1268.384064958791  -2649.013130807281 51.45130501176305 672.5030634636568  -922.291163123588 301.7658929228267 -1772.239642735477  -1886.239839389666 98.16520763828039 1852.546046124521  593.3243070225313 304.9209827160399 1881.076879208879  -2552.767110147579 -153.2343329222899 -450.857844320273  -1604.814934482489 31.8594409734777 -2154.583787020029  -1250.541757872443 174.8258860187582 2137.407366327506  -1542.566300741505 -201.1248835948001 -1862.617031119942  -1615.840805007132 -299.0067652712866 -1249.300350659929  -1361.983841880555 336.458758648597 1198.418129229223  -695.8582558235651 -435.5165477159374 171.3317468708287  -1316.727087758167 29.46908668243787 2330.31386179943  -1945.634261513808 -42.57059000862827 1867.773444965019  -932.6725734016896 -299.8335069707301 -1778.510508846006  -936.1639504856809 -381.6009554276678 -1101.898053052509  -803.4037796061598 -190.1789349377418 -2286.996999181054  1399.483644065845 389.042751792468 -75.10990424819354  -1881.341725876906 -321.012133949245 471.7836987948601  -2264.280260215528 -217.2147361903064 825.2272506615163  494.3046754721859 391.81005278124 1234.923372647984  -178.4094994280975 353.6470204753213 1648.452821424371  -61.77636172288216 266.978890835263 2148.267996285591  -746.9302582514777 112.9760850941011 2473.115736793787  -1246.032035853365 -245.0691721717046 1887.284424500951  650.4992760026155 298.102561333041 -1901.152681593959  -1546.81678883131 -361.0416716073835 -580.9494159825712  -204.2558830321214 228.9491349495844 -2287.219274172267  -452.4963155177572 98.27012925444218 -2559.615824921989  -307.1849449503015 421.468740891201 903.6143685487923  -582.54718192624 -69.58195361308957 2567.413979150117  -199.4329160028934 -370.2301386749412 -1513.715248195785  -1258.666751985644 -111.7873756151602 2273.879019206578  -1940.735820313463 -179.8852541380098 1567.545516837392  -2415.622416710024 -86.54040775568039 1177.436149292771  -2643.134935841935 -112.3156883254516 373.2053878996256  -2745.093391351711 -14.6114762371792 -231.0282492304869  -1059.169455730087 194.6095368180748 -2174.471596115316  -1606.538915367448 215.2310987325035 -1754.839543364028  -234.7829575488028 -424.6471147824261 -870.9743457273643  -93.86019877297132 334.1091846520769 -1791.365010106753  1100.702098776945 396.9645983935047 695.0383385319186  2376.40256809847 -117.7725852537591 1158.736630902165  137.7857557578332 -128.39081777159 -2547.543945067428  436.4322135222628 -439.8796025721227 -409.9996203968917  -840.032250521053 289.0863980007609 1880.379750091107  2635.680455919659 114.1325258914375 -402.7036593757928  1762.897247380621 327.9098172863861 684.5085402201079  2079.348498660811 297.4008278860445 -30.39720065632244  -2106.038944931339 -269.0944319489105 -672.7345903628561  -914.7126342638146 424.2789819135707 207.2209898596941  -1534.042613805027 366.4332180557287 486.8372221110597  -149.6455471301962 -276.748102858944 -2100.863816363326  -642.5326388979373 -50.61578159851727 -2569.350484041043  -1354.441813559555 -81.23259182675019 -2267.194871549822  637.8643592019373 438.2163055132511 -135.9961385901042  74.7455935503266 -447.9347130031333 295.8453993358478  1523.298310816179 -285.9792281081424 1447.574527978767  2640.350902123819 115.5739396825271 357.4361611236336  1206.027963003701 -121.472648982885 2283.324447440049  -2332.819265364556 -241.4329571762016 65.69363604519937  -493.8050416032738 -298.5545326520078 1942.320373217406  1343.70146366891 219.2891265319571 -1933.903697001229  -2362.117480539837 36.16639562359122 1355.024730253576  619.4327904068248 -336.6784491366643 -1673.167591597983  675.5048551142916 217.5519705105442 2240.821426619562  393.3315660293786 436.2620425477562 559.4746825227468  -1715.719739250052 283.7415649736632 -1248.852446238594  2306.46696598144 -218.4203263191781 -695.2423654639028  -42.19418282465097 117.9222692618865 2567.965676725592  2089.047419610997 -212.5682047432608 1208.031117352881  -2677.008489655979 108.1023203420226 -60.47878572514222  -1426.682073340041 -386.6417907944763 25.66979969592734  -871.4635736006425 -421.5936956582146 -441.1162128237059  2474.062225970764 200.2163372022695 -18.4991618622773  -615.5942815914184 223.2047453113421 2237.783011723737  765.9925636245544 202.7340225211235 -2261.621965899799  -929.5209583674726 33.32123446522477 -2496.308550421664  -1009.194384567847 395.0691636572925 845.6700292791336  2345.630306836936 -203.1837680714553 731.5869823652354  -188.0835747634141 -447.5781365550295 -267.3212086602072  -1768.286773050268 117.903863277216 -1920.17093370666  -1208.479721388294 100.203856642216 -2317.394795162825  -771.7092116093872 363.564391864839 1395.076735108957  -1940.052701564358 -320.6861904443378 -148.8583448283644  -0.015613037399918 0.0007479725155798454 0.01060032918230966  -880.4426535354696 -176.5084733748864 73.77558024605119  1331.081926893703 68.89167729976671 -12.17078397275903  -530.3998262208862 185.5014119671794 586.7370619342819  992.2546017748219 -131.575895959436 533.7360337761069  -646.3799510743792 19.27154440789278 -1185.628481599703  -1369.006287184595 35.0671694472966 0.9843852856391508  261.6147870005452 209.7841678836032 -509.5159174043989  924.6969609769138 -103.4841410724352 -797.7473743392821  -719.2386284104074 -19.67017837023087 1149.946245714087  689.7451538192608 156.2283943264117 927.2979883586937  -254.7228509356306 -178.2500109997203 -1007.345265864568  227.8917299331806 -257.1795835568047 4.93550837782002  549.0972546576364 6
[...]
<PointData  Vectors="Tidal Force"> 
<DataArray  type="Float64"  Name="Tidal Force"  NumberOfComponents="3" format="ascii">0.0000000000000000e+00 -1.7956350625735355e-17 0.0000000000000000e+00  0.0000000000000000e+00 0.0000000000000000e+00 0.0000000000000000e+00  0.0000000000000000e+00 0.0000000000000000e+00 0.0000000000000000e+00  0.0000000000000000e+00 -1.7956350625735355e-17 0.0000000000000000e+00  0.0000000000000000e+00 0.0000000000000000e+00 0.0000000000000000e+00  0.0000000000000000e+00 0.0000000000000000e+00 0.0000000000000000e+00  0.0000000000000000e+00 1.1970900417156902e-17 0.0000000000000000e+00  0.0000000000000000e+00 -1.1970900417156902e-17 0.0000000000000000e+00  0.0000000000000000e+00 0.0000000000000000e+00 0.0000000000000000e+00  0.0000000000000000e+00 1.1970900417156902e-17 0.0000000000000000e+00  0.0000000000000000e+00 1.1970900417156902e-17 0.0000000000000000e+00  0.0000000000000000e+00 -1.7596026523178931e-13 0.0000000000000000e+00  0.0000000000000000e+00 1.3670169731372322e-13 0.0000000000000000e+00  0.0000000000000000e+00 -1.5667514465974953e-13 0.0000000000000000e+00  0.0000000000000000e+00 -1.7092051615616626e-13 0.0000000000000000e+00  0.0000000000000000e+00 1.5845880882190592e-13 0.0000000000000000e+00  0.0000000000000000e+00 1.5845880882190592e-13 0.0000000000000000e+00  0.0000000000000000e+00 1.5750712223874195e-13 0.0000000000000000e+00  0.0000000000000000e+00 -1.5751909313915910e-13 0.0000000000000000e+00  0.0000000000000000e+00 -1.5750712223874195e-13 0.0000000000000000e+00  0.0000000000000000e+00 -3.0867565270659935e-13 0.0000000000000000e+00  0.0000000000000000e+00 -3.0255253714322354e-13 0.0000000000000000e+00  0.0000000000000000e+00 -4.3175446534559804e-13 0.0000000000000000e+00  0.0000000000000000e+00 -4.0539454262701856e-13 0.0000000000000000e+00  0.0000000000000000e+00 -5.1322841358476792e-13 0.0000000000000000e+00  0.0000000000000000e+00 -4.6109514226804964e-13 0.0000000000000000e+00  0.0000000000000000e+00 -5.4795001024473135e-13 0.0000000000000000e+00  0.0000000000000000e+00 -4.7674110911327365e-13 0.0000000000000000e+00  0.0000000000000000e+00 -5.3357894429393449e-13 0.0000000000000000e+00  0.0000000000000000e+00 -4.3606398949577451e-13 0.0000000000000000e+00  0.0000000000000000e+00 -4.6812206081292072e-13 0.0000000000000000e+00  0.0000000000000000e+00 -3.7516203362348874e-13 0.0000000000000000e+00  0.0000000000000000e+00 1.5751310768895053e-13 0.0000000000000000e+00  0.0000000000000000e+00 3.0456364841330593e-13 0.0000000000000000e+00  0.0000000000000000e+00 2.9190442122216247e-13 0.0000000000000000e+00  0.0000000000000000e+00 -3.4847889659364607e-13 0.0000000000000000e+00  0.0000000000000000e+00 -3.0571884030356159e-13 0.0000000000000000e+00  0.0000000000000000e+00 2.9110835634442154e-13 0.0000000000000000e+00  0.0000000000000000e+00 4.2511660106428450e-13 0.0000000000000000e+00  0.0000000000000000e+00 -1.5286241287688507e-13 0.0000000000000000e+00  0.0000000000000000e+00 -3.1544519689250154e-13 0.0000000000000000e+00  0.0000000000000000e+00 -1.5860245962691179e-13 0.0000000000000000e+00  0.0000000000000000e+00 1.5749515133832480e-13 0.0000000000000000e+00  0.0000000000000000e+00 1.5354475420066300e-13 0.0000000000000000e+00  0.0000000000000000e+00 3.0293560595657263e-13 0.0000000000000000e+00  0.0000000000000000e+00 -5.1781925389474748e-13 0.0000000000000000e+00  0.0000000000000000e+00 -5.3984571066231630e-13 0.0000000000000000e+00  0.0000000000000000e+00 -3.1652257793004566e-13 0.0000000000000000e+00  0.0000000000000000e+00 2.9538196779334661e-13 0.0000000000000000e+00  0.0000000000000000e+00 4.2594259319306832e-13 0.0000000000000000e+00  0.0000000000000000e+00 4.1461213594822932e-13 0.0000000000000000e+00  0.0000000000000000e+00 5.1536521930923036e-13 0.0000000000000000e+00  0.0000000000000000e+00 4.8423489277441392e-13 0.0000000000000000e+00  0.0000000000000000e+00 5.5746089062616266e-13 0.0000000000000000e+00  0.0000000000000000e+00 4.9804332640560439e-13 0.0000000000000000e+00  0.0000000000000000e+00 5.4761482503305116e-13 0.0000000000000000e+00  0.0000000000000000e+00 4.6842731877355821e-13 0.0000000000000000e+00  0.0000000000000000e+00 5.7951128919456557e-13 0.0000000000000000e+00  0.0000000000000000e+00 -4.5018366653781107e-13 0.0000000000000000e+00  0.0000000000000000e+00 -4.9743879593453791e-13 0.0000000000000000e+00  0.0000000000000000e+00 4.8665900010888815e-13 0.0000000000000000e+00  0.0000000000000000e+00 3.8135098913915880e-13 0.0000000000000000e+00  0.0000000000000000e+00 3.8052499701037508e-13 0.0000000000000000e+00  0.0000000000000000e+00 2.5143679236196357e-13 0.0000000000000000e+00  0.0000000000000000e+00 2.3867581251727432e-13 0.0000000000000000e+00  0.0000000000000000e+00 2.3835259820601108e-13 0.0000000000000000e+00  0.0000000000000000e+00 3.5226170112546760e-13 0.0000000000000000e+00  0.0000000000000000e+00 1.0432041168531382e-13 0.0000000000000000e+00  0.0000000000000000e+00 1.9628086868991315e-13 0.0000000000000000e+00  0.0000000000000000e+00 6.6971202383784291e-14 0.0000000000000000e+00  0.0000000000000000e+00 -7.5781785090811768e-14 0.0000000000000000e+00  0.0000000000000000e+00 2.9557350220002106e-13 0.0000000000000000e+00  0.0000000000000000e+00 -2.4171642122323217e-13 0.0000000000000000e+00  0.0000000000000000e+00 -3.8539116802994938e-13 0.0000000000000000e+00  0.0000000000000000e+00 -1.0263251472649470e-13 0.0000000000000000e+00  0.0000000000000000e+00 -2.4071086558819100e-13 0.0000000000000000e+00  0.0000000000000000e+00 6.6229006557920564e-14 0.0000000000000000e+00  0.0000000000000000e+00 3.8843177673590713e-13 0.0000000000000000e+00  0.0000000000000000e+00 1.2635285390309112e-13 0.0000000000000000e+00  0.0000000000000000e+00 3.9248991197732331e-13 0.0000000000000000e+00  0.0000000000000000e+00 -1.9723854072328570e-13 0.0000000000000000e+00  0.0000000000000000e+00 4.1006319378970969e-14 0.0000000000000000e+00  0.0000000000000000e+00 2.2503497149192404e-13 0.0000000000000000e+00  0.0000000000000000e+00 -2.5888269242143519e-13 0.0000000000000000e+00  0.0000000000000000e+00 -3.8488240476222014e-13 0.0000000000000000e+00  0.0000000000000000e+00 4.3308922074211100e-13 0.0000000000000000e+00  0.0000000000000000e+00 -5.6060923743587486e-13 0.0000000000000000e+00  0.0000000000000000e+00 3.7929797971761645e-14 0.0000000000000000e+00  0.0000000000000000e+00 -5.4796796659535724e-14 0.0000000000000000e+00  0.0000000000000000e+00 -3.8594781489934711e-13 0.0000000000000000e+00  0.0000000000000000e+00 -4.9120195681719921e-13 0.0000000000000000e+00  0.0000000000000000e+00 -2.4479294263044153e-13 0.0000000000000000e+00  0.0000000000000000e+00 5.0077269170071601e-13 0.0000000000000000e+00  0.0000000000000000e+00 -4.1321154059942192e-13 0.0000000000000000e+00  0.0000000000000000e+00 -2.7959833559332525e-13 0.0000000000000000e+00  0.0000000000000000e+00 5.0434600547523740e-13 0.0000000000000000e+00  0.0000000000000000e+00 4.5521144471301702e-13 0.0000000000000000e+00  0.0000000000000000e+00 3.4364863827532322e-13 0.0000000000000000e+00  0.0000000000000000e+00 1.4542249826762205e-13 0.0000000000000000e+00  0.0000000000000000e+00 -3.1545716779291869e-13 0.0000000000000000e+00  0.0000000000000000e+00 3.8371524197154733e-13 0.0000000000000000e+00  0.0000000000000000e+00 -4.6473429599486532e-13 0.0000000000000000e+00  0.0000000000000000e+00 2.9469962646956863e-13 0.0000000000000000e+00  0.0000000000000000e+00 1.2649650470809699e-13 0.0000000000000000e+00  0.0000000000000000e+00 5.4252120690555082e-13 0.0000000000000000e+00  0.0000000000000000e+00 -8.9572262371376529e-14 0.0000000000000000e+00  0.0000000000000000e+00 -4.7656154560701636e-13 0.0000000000000000e+00  0.0000000000000000e+00 -1.4389022301422600e-13 0.0000000000000000e+00  0.0000000000000000e+00 -2.3154714131885739e-13 0.0000000000000000e+00  0.0000000000000000e+00 -1.1138922838164497e-13 0.0000000000000000e+00  0.0000000000000000e+00 -1.4457256433800390e-13 0.0000000000000000e+00  0.0000000000000000e+00 -1.8806284555353493e-14 0.0000000000000000e+00  0.0000000000000000e+00 2.5049707667921675e-13 0.0000000000000000e+00  0.0000000000000000e+00 2.7704254835426218e-13 0.0000000000000000e+00  0.0000000000000000e+00 -5.4660926939800979e-13 0.0000000000000000e+00  0.0000000000000000e+00 4.3006058293657030e-13 0.0000000000000000e+00  0.0000000000000000e+00 5.1098386975655099e-13 0.0000000000000000e+00  0.0000000000000000e+00 -1.5159349743266644e-13 0.0000000000000000e+00  0.0000000000000000e+00 -1.6525828025885104e-13 0.0000000000000000e+00  0.0000000000000000e+00 -5.6622358973152148e-13 0.0000000000000000e+00  0.0000000000000000e+00 3.7210945401711379e-13 0.0000000000000000e+00  0.0000000000000000e+00 1.4690688991934951e-13 0.0000000000000000e+00  0.0000000000000000e+00 4.2208796325874384e-13 0.0000000000000000e+00  0.0000000000000000e+00 3.8280545353984341e-13 0.0000000000000000e+00  0.0000000000000000e+00 -3.4637800357043499e-13 0.0000000000000000e+00  0.0000000000000000e+00 5.4613641883153221e-13 0.0000000000000000e+00  0.0000000000000000e+00 4.7167143278660771e-13 0.0000000000000000e+00  0.0000000000000000e+00 -3.5623604006396368e-13 0.0000000000000000e+00  0.0000000000000000e+00 -6.5157610970585022e-14 0.0000000000000000e+00  0.0000000000000000e+00 -1.0456581514386554e-13 0.0000000000000000e+00  0.0000000000000000e+00 5.6407481310664195e-13 0.0000000000000000e+00  0.0000000000000000e+00 -5.7659637494298807e-13 0.0000000000000000e+00  0.0000000000000000e+00 -3.6811117327778331e-13 0.0000000000000000e+00  0.0000000000000000e+00 1.4876836493421740e-13 0.0000000000000000e+00  0.0000000000000000e+00 -1.5636390124890346e-13 0.0000000000000000e+00  0.0000000000000000e+00 -3.1077056027960179e-13 0.0000000000000000e+00  0.0000000000000000e+00 -3.8429583064177951e-13 0.0000000000000000e+00  0.0000000000000000e+00 2.8226784638635117e-13 0.0000000000000000e+00  0.0000000000000000e+00 4.6548846272114623e-14 0.0000000000000000e+00  0.0000000000000000e+00 -4.3337053690191419e-13 0.0000000000000000e+00  0.0000000000000000e+00 2.8002928800834284e-13 0.0000000000000000e+00  0.0000000000000000e+00 5.6156690946924743e-13 0.0000000000000000e+00  0.0000000000000000e+00 3.6523217172745710e-13 0.0000000000000000e+00  0.0000000000000000e+00 -2.8114258174713845e-13 0.0000000000000000e+00  0.0000000000000000e+00 1.5178503183934095e-13 0.0000000000000000e+00  0.0000000000000000e+00 -2.7361288538474674e-13 0.0000000000000000e+00  0.0000000000000000e+00 1.3914376099882325e-13 0.0000000000000000e+00  0.0000000000000000e+00 -4.9769018484329820e-13 0.0000000000000000e+00  0.0000000000000000e+00 -5.4267682861097381e-13 0.0000000000000000e+00  0.0000000000000000e+00 2.5771552963076233e-13 0.0000000000000000e+00  0.0000000000000000e+00 2.8730759546197426e-13 0.0000000000000000e+00  0.0000000000000000e+00 2.6095365819360333e-13 0.0000000000000000e+00  0.0000000000000000e+00 4.2885750744464605e-14 0.0000000000000000e+00  0.0000000000000000e+00 5.0854180607145097e-13 0.0000000000000000e+00  0.0000000000000000e+00 -2.6153424686383541e-13 0.0000000000000000e+00  0.0000000000000000e+00 -5.7613549527692738e-13 0.0000000000000000e+00  0.0000000000000000e+00 1.5176707548871521e-13 0.0000000000000000e+00  0.0000000000000000e+00 1.2897448109444846e-13 0.0000000000000000e+00  0.0000000000000000e+00 4.6798439545812342e-13 0.0000000000000000e+00  0.0000000000000000e+00 -4.1278657363461288e-13 0.0000000000000000e+00  0.0000000000000000e+00 0.0000000000000000e+00 0.0000000000000000e+00  0.0000000000000000e+00 -2.2720170446742942e-13 0.0000000000000000e+00  0.0000000000000000e+00 8.8668459389881170e-14 0.0000000000000000e+00  0.0000000000000000e+00 2.3877756517082016e-13 0.0000000000000000e+00  0.0000000000000000e+00 -1.6936429910193586e-13 0.0000000000000000e+00  0.0000000000000000e+00 2.4809691114557679e-14 0.0000000000000000e+00  0.0000000000000000e+00 4.5136280022890097e-14 0.0000000000000000e+00  0.0000000000000000e+00 2.7003957161022535e-13 0.0000000000000000e+00  0.0000000000000000e+00 -1.3321217984212200e-13 0.0000000000000000e+00  0.0000000000000000e+00 -2.5318454382286851e-14 0.0000000000000000e+00  0.0000000000000000e+00 2.0109915610781883e-13 0.0000000000000000e+00  0.0000000000000000e+00 -2.2944624829564635e-13 0.0000000000000000e+00  0.0000000000000000e+00 -3.3104926558626556e-13 0.0000000000000000e+00  0.0000000000000000e+00 8.8057943468606176e-14 0.0000000000000000e+00  0.0000000000000000e+00 -2.5804472939223422e-13 0.0000000000000000e+00  0.0000000000000000e+00 -3.1525366248582706e-14 0.0000000000000000e+00  0.0000000000000000e+00 2.5246628979783909e-13 0.0000000000000000e+00  0.0000000000000000e+00 -1.2072054525681877e-13 0.0000000000000000e+00  0.0000000000000000e+00 1.5161145378329219e-14 0.0000000000000000e+00  0.0000000000000000e+00 1.5672901371162675e-13 0.0000000000000000e+00  0.0000000000000000e+00 3.5436259414867869e-13 0.0000000000000000e+00  0.0000000000000000e+00 2.0997557876714063e-13 0.0000000000000000e+00  0.0000000000000000e+00 2.9466969921852573e-13 0.0000000000000000e+00  0.0000000000000000e+00 1.3349948145213377e-13 0.0000000000000000e+00  0.0000000000000000e+00 -1.1074878520932707e-13 0.0000000000000000e+00  0.0000000000000000e+00 2.3332482003080518e-13 0.0000000000000000e+00  0.0000000000000000e+00 -1.2273165652690115e-13 0.0000000000000000e+00  0.0000000000000000e+00 2.1026886582736100e-14 0.0000000000000000e+00  0.0000000000000000e+00 -2.8995316445416593e-13 0.0000000000000000e+00  0.0000000000000000e+00 1.0718744233522290e-13 0.0000000000000000e+00  0.0000000000000000e+00 -1.1404676827425382e-13 0.0000000000000000e+00  0.0000000000000000e+00 -3.6405303803636714e-13 0.0000000000000000e+00  0.0000000000000000e+00 -3.8327231865611254e-13 0.0000000000000000e+00  0.0000000000000000e+00 -3.3812406773280529e-13 0.0000000000000000e+00  0.0000000000000000e+00 2.8888775431703891e-13 0.0000000000000000e+00  0.0000000000000000e+00 -3.2933144137640356e-13 0.0000000000000000e+00  0.0000000000000000e+00 3.8831206773173559e-13 0.0000000000000000e+00  0.0000000000000000e+00 -1.4697272987164388e-13 0.0000000000000000e+00  0.0000000000000000e+00 1.8896066308482170e-13 0.0000000000000000e+00  0.0000000000000000e+00 1.7405689206546137e-13 0.0000000000000000e+00  0.0000000000000000e+00 9.3780033868007187e-14 0.0000000000000000e+00  </DataArray> 
</PointData> 
</Piece>
</UnstructuredGrid>
</VTKFile>