<?xml version="1.0"?>
<VTKFile type="UnstructuredGrid"  version="0.1"  >
<UnstructuredGrid>
<Piece  NumberOfPoints="201" NumberOfCells="657">
<Points>
<DataArray  type="Float64"  NumberOfComponents="3"  format="ascii">-6.334243436426712 0.9190348458617063 164.3428714910229  -7.072626461294375 -0.7865007504865714 -165.5754792201176  1438.23550517062 1.038937845018589 -167.5080616634734  2476.728003827951 -0.2024255472126731 -169.4460367475684  3086.810681418812 -1.17521022715295 -149.1039900934004  3402.884159895689 -0.8980627862711775 -83.5788655332918  3501.687506366531 -0.5245242797694288 8.244195870313753  3403.109440378754 -0.7139332116890853 99.80346342538034  3086.617209892632 -0.9657226797853974 164.6445044072601  2477.907975255368 0.495614525742185 183.5107708488752  1437.667963250585 0.7964217660362545 176.7428322406334  1745.830676381286 -337.8753305638292 -162.0841750577525  1755.583598488889 262.236835666396 174.6965522428538  3375.487723631818 -382.1331270068583 -36.00827025668179  2728.178416107438 -369.6870259240656 166.6000282370464  3183.85565185548 372.1001322570281 124.9943550056036  3177.220893910804 372.2725067551689 -110.7014583949993  1925.110234389163 308.3431055130548 -163.8041079725483  716.8114803471782 -280.5677392448289 163.6740090193395  2720.152327627566 -340.7951739353587 -153.8765631071187  1986.936874669928 -611.1115910266877 -139.5792476841527  2704.673725674204 -659.2119762243125 -110.6783068897447  1932.022740024496 -860.4555546545143 -93.08723484607414  2549.207209466821 -872.3420869378623 -48.3066022708946  1679.548231397298 -1004.154645770088 -35.6214012208502  2293.580086900073 -963.3287772776731 17.95581505811846  1268.395878563944 -1038.842025317698 21.61552163330369  1829.529663576579 -944.3468078868966 76.94788989509922  686.8321284701578 -977.5344816605383 69.13084724778201  1255.060009445099 -816.9452905519622 116.6526699295746  -48.91579327470473 -843.489496725588 106.0883770143805  2659.761263303292 -818.1533218199153 76.89642496555973  2723.732149759741 341.3825933966574 169.6693125753854  2664.758955092219 660.3203024364977 128.8483092929895  3034.822623765768 674.2106405906942 69.11168912604622  502.924314769622 -627.1043876863813 140.485818315122  1755.732734879011 -589.5946126022787 152.0279562273595  2000.699421598649 577.5894539279249 155.1333450801963  1850.924452881076 838.1651007780882 110.5766662535872  3381.604062845961 -373.1889469233939 51.69472335637574  3035.774735494354 -727.0921424274172 12.47060940851668  3196.166290988599 -373.5836633900252 -107.1162968031923  708.5451084915794 282.3776538931069 -158.8144619361346  2706.270154372839 330.3464629566084 -155.6148514348097  2647.734534087762 655.7117525441419 -116.2806865982494  856.5724047200447 -953.7773071496863 -73.10302923508188  -604.890870687399 -986.5015416075959 60.87500064066684  918.96640640208 -575.9262338275353 -140.9243515106097  3019.266018368282 680.0248934213819 -55.52321290469355  2365.945293308847 896.0071091799522 -59.38354843413321  1806.052684944093 811.8199772737299 -106.2979646951529  1398.676288720393 983.001077038292 -56.38691402793623  651.7974887034643 882.3409936250684 -95.37237696252126  179.3961487070197 1014.115485297852 -50.65285869838583  -670.5110355133341 909.2355711832206 -92.64432654351197  -1055.278787517418 1025.584739340444 -43.81387829428164  -1822.414787234632 926.854610704637 -84.86345508907547  -209.8848287327627 1055.519746003651 2.6114801955083  -1340.711405590588 -852.8346849006782 102.3475189522754  -1737.58303733709 -982.0479096968068 52.38208284012996  -2063.995394282747 991.2207150108709 -28.25321726429678  -2652.003746475847 832.5217947005232 -71.08447755800306  -2768.657295040217 846.9986535269005 -1.431795707974083  -3184.166821230187 595.8419034011175 -53.52798592594738  -3216.276668345394 568.6556074671633 34.41246723331994  -2958.594772259313 540.8639993080293 -127.8110693930635  -2720.877489491364 775.1885338369233 74.41276594916977  -3357.566413240012 253.1999355498399 -94.25902396775508  -3083.941083962959 454.7228700446881 111.2902437381653  -3053.18731859107 152.9385809636239 -163.8468735111065  -3274.745662443722 -180.8621600930981 -128.4612686712429  -2467.25331796181 621.7484337467014 130.1968322079262  -653.4037975465787 -434.2968477145851 150.4424824754562  -2345.646136064487 -804.3372190368813 94.61246678060449  -2838.425906696668 -226.8202287325369 -173.5165755977928  -2926.628150486054 -543.4289251025533 -130.6923842992768  -3410.321139069011 162.1589021400566 67.72291330619453  -1430.525524156397 736.8763124192003 -132.8855280361594  -2737.208847948934 274.6143325475891 160.214583584446  944.4291258631703 717.6268141332289 131.3106188529542  -3290.797079054926 -475.7177069585126 -57.80317718885316  -2450.272652017104 85.61589930743045 -183.8918482773032  -1958.509563585392 441.2192679710741 154.9834619799803  -2299.85292161414 -531.4637321019213 -158.9297906627014  -2295.879426064041 -798.099596074223 -112.1411075698772  -1965.413615186111 867.3137387469883 90.52032345070944  -1015.240924310507 -1048.903549114486 9.315244262426097  -2097.550201811735 77.20762843713996 169.6720009621414  -2815.980667611765 -120.9635442280128 162.6528676375953  -1444.668833711848 -733.9523439542229 -133.8919066185937  -1384.59070222329 -938.2131214701876 -86.78773017106263  -1324.262389748576 -454.4162278109681 -161.4023186469515  1961.484531305242 1005.290354422909 -0.0519433612658594  -2548.14274688133 -889.6194039054798 35.54337209701904  -3011.705031061051 -642.0159277601801 75.85074895799058  749.4889238933081 924.9627524851094 88.17424099648923  -287.003675697322 820.6580831969022 109.1336540031021  -102.3187282929012 614.3780813159847 138.4760074359284  -1257.913904304631 268.5724871236515 162.81198259326  -1902.026280367583 -621.8472019513779 139.2298585671955  1033.739065583195 706.4178218203859 -127.2808148746008  -2148.018759316892 -955.1008224021519 -55.22510247815192  -339.4773287310392 526.0568710936916 -147.8120729489061  -781.3386662753687 227.9574014286894 -166.3679936560584  -466.7091879295302 987.90365967919 61.00987713400205  -1003.389053019772 -163.360187402808 163.0025534117243  -309.8540293874886 -860.6829164594678 -103.2604786010552  -1995.234138682571 -282.7423550503458 165.4060924636204  -2748.048680776476 -505.5669388524435 135.0414730195902  -3218.359144665589 -263.6045170580574 117.5977905006054  -3381.370470752937 -353.8807279886623 34.15480535527553  -3484.97532732843 -46.68183211296833 -35.24271458631603  -1692.020577697341 480.5230942669684 -163.253194048268  -2367.936005963455 573.8168347629139 -152.6436592340666  -356.4527213202449 -993.8835967436717 -61.75879491753532  -151.9921804759191 772.8690999774479 -119.5758266206191  1583.564619746043 989.9193044813314 58.22166947957582  3184.332048846939 -356.9582558347626 127.323489776365  228.6321424726755 -292.448518539842 -158.063411031343  640.3344601501766 -1039.08236985439 -27.06107183600594  -1322.962254173154 698.3877505375019 129.327819282032  3381.686793651514 358.6862610081529 -37.13931114228225  2421.602762450384 894.6750326521817 67.6202183856193  2762.089661497659 851.620813684711 4.281824436259858  -2819.574413923579 -772.3646283686703 -71.27735501065368  -1320.135371693279 1042.584601084287 11.54877379862344  -2129.605810952808 967.238789962141 35.07413007380588  -247.3926457899742 -636.8223748012688 -137.2845722357434  -1098.536830937131 -118.9357625459852 -172.2205377122972  -2137.13596059478 -208.0890000702401 -180.8819284527045  927.6066536272488 1047.917380262069 -7.03465747193757  105.5351160673091 -1049.720672106203 20.86879798897091  2205.898205970494 -752.2562149170499 125.9590046386415  3384.054227117892 363.2209328389817 47.99028830392827  1923.009308676288 -305.9089719024389 176.0584445438948  -3049.914063543546 -719.3055024982533 -0.7069467108996863  -799.2377650682494 -699.6425283865138 127.3304946698366  2052.722182033178 562.397239191322 -144.148177318325  -3189.007182874739 108.9847822488315 133.237324264914  966.3344299914222 -796.7789994524577 -112.3729822310343  1111.835305134614 514.0308457036474 153.818013211534  575.2380879321698 1029.316572606693 41.0661568788713  -2424.838475671325 768.9392865353084 -115.2018245548072  3051.801844663056 -648.1533853451214 -62.31060933425348  -70.85705743272266 269.1831478488171 159.2818332726501  2862.236221264802 -609.7121163661714 122.4093970930669  -3411.145744478286 342.2795211599031 -15.08513367764061  -1982.004635675783 -1007.591396216187 -3.80434150460024  -1263.063670495054 -1031.666520821506 -36.99077651655676  3198.722117697716 612.2658858391342 5.679065836998451  -1018.474479778997 526.9150609856035 146.8375991832009  1261.317016443396 482.8783648708874 -149.6564163335458  -1552.935441631892 80.41721131291062 -178.1942595343493  -1470.651827080213 978.7536929068613 59.88233292863755  3096.776014295698 -606.6336663067322 82.29033893838965  -283.2101983430697 -1049.904418728203 -19.85803969076016  -2611.230431116517 322.8714456771828 -173.1446287971579  -1932.212153438055 251.9897232936467 -178.2394612637546  -1174.813264073517 876.5358450083281 96.71311087796693  -2604.752316363858 -895.7452869063607 -20.54911524042112  -5.378503673452617 -0.1466135829907178 -0.2683279123492811  -1445.498157456706 -428.6114427298601 0.1187329504311853  2117.671824670644 176.6774786656856 5.672050635258418  -897.1354768826156 437.1725517974112 35.62388407428371  1630.071484154047 -323.366180575816 43.10495376971146  -1117.270902380136 46.06725238482255 -81.55141091893131  -2170.934158064289 91.04674671402563 -6.409038928021627  443.5130527679919 484.7335888422859 -31.13115297692821  1541.223931561157 -252.2408280300995 -50.02354752198738  -1230.40621366947 -47.27891725312721 72.63038114591677  1160.890597525977 372.0070940787127 65.45311479618945  -438.2100600199366 -412.8358483842873 -65.6511864887529  378.8796954243265 -595.0248369872113 1.282408454489709  947.3928982272211 161.02605722123 -82.075
[...]
<PointData  Vectors="Centrifugal"> 
<DataArray  type="Float64"  Name="Centrifugal"  NumberOfComponents="3" format="ascii">-1.5314637765991263e-07 0.0000000000000000e+00 3.9734051454890534e-06  -1.7099865737081068e-07 0.0000000000000000e+00 -4.0032065591355403e-06  3.4772985921583840e-05 0.0000000000000000e+00 -4.0499316343082210e-06  5.9881172241318598e-05 0.0000000000000000e+00 -4.0967870902285785e-06  7.4631466113637038e-05 0.0000000000000000e+00 -3.6049665925572513e-06  8.2273342967427126e-05 0.0000000000000000e+00 -2.0207307524273101e-06  8.4662164105192390e-05 0.0000000000000000e+00 1.9932431503920441e-07  8.2278789693667623e-05 0.0000000000000000e+00 2.4130014981130291e-06  7.4626788449491053e-05 0.0000000000000000e+00 3.9806978851774446e-06  5.9909701039061232e-05 0.0000000000000000e+00 4.4368376585376529e-06  3.4759264158267292e-05 0.0000000000000000e+00 4.2732056016898960e-06  4.2209878224410643e-05 0.0000000000000000e+00 -3.9187954386692240e-06  4.2445679817350590e-05 0.0000000000000000e+00 4.2237316001799998e-06  8.1610964734460002e-05 0.0000000000000000e+00 -8.7059113072559138e-07  6.5960622800518621e-05 0.0000000000000000e+00 4.0279776264701695e-06  7.6977774057379939e-05 0.0000000000000000e+00 3.0220551024233536e-06  7.6817361980377293e-05 0.0000000000000000e+00 -2.6764881275903705e-06  4.6544415596227239e-05 0.0000000000000000e+00 -3.9603791729166697e-06  1.7330732988395456e-05 0.0000000000000000e+00 3.9572337012243995e-06  6.5766571784038770e-05 0.0000000000000000e+00 -3.7203556325434792e-06  4.8039231211842924e-05 0.0000000000000000e+00 -3.3746818217302407e-06  6.5392337379537420e-05 0.0000000000000000e+00 -2.6759283813155846e-06  4.6711542927096348e-05 0.0000000000000000e+00 -2.2506196621795262e-06  6.1633540603959477e-05 0.0000000000000000e+00 -1.1679344548555644e-06  4.0607332244986371e-05 0.0000000000000000e+00 -8.6123759197056455e-07  5.5453107495312259e-05 0.0000000000000000e+00 4.3412730528610137e-07  3.0666682799675796e-05 0.0000000000000000e+00 5.2260998059103828e-07  4.4233513222246041e-05 0.0000000000000000e+00 1.8604101222632770e-06  1.6605906228793156e-05 0.0000000000000000e+00 1.6714133182305997e-06  3.0344254388296441e-05 0.0000000000000000e+00 2.8203737389274455e-06  -1.1826631902559162e-06 0.0000000000000000e+00 2.5649552017749005e-06  6.4306464853019539e-05 0.0000000000000000e+00 1.8591658272476900e-06  6.5853123050612595e-05 0.0000000000000000e+00 4.1021853488513122e-06  6.4427296709549371e-05 0.0000000000000000e+00 3.1152342081371946e-06  7.3374523150985551e-05 0.0000000000000000e+00 1.6709501221163225e-06  1.2159469053735805e-05 0.0000000000000000e+00 3.3966004627833234e-06  4.2449285567295742e-05 0.0000000000000000e+00 3.6756608793036265e-06  4.8371975639912638e-05 0.0000000000000000e+00 3.7507415197637674e-06  4.4750786439744771e-05 0.0000000000000000e+00 2.6734709615137097e-06  8.1758842725665712e-05 0.0000000000000000e+00 1.2498508631089416e-06  7.3397542863414325e-05 0.0000000000000000e+00 3.0150856646003740e-07  7.7275414937279151e-05 0.0000000000000000e+00 -2.5898077660568636e-06  1.7130872512747389e-05 0.0000000000000000e+00 -3.8397418428312161e-06  6.5430935086563087e-05 0.0000000000000000e+00 -3.7623831553859753e-06  6.4015688214429472e-05 0.0000000000000000e+00 -2.8113800997795090e-06  2.0709807304203452e-05 0.0000000000000000e+00 -1.7674508780222813e-06  -1.4624768791264278e-05 0.0000000000000000e+00 1.4718073171216797e-06  2.2218340318637206e-05 0.0000000000000000e+00 -3.4072031134465875e-06  7.2998402815665204e-05 0.0000000000000000e+00 -1.3424142942618876e-06  5.7202719637842683e-05 0.0000000000000000e+00 -1.4357476826640006e-06  4.3665897804232979e-05 0.0000000000000000e+00 -2.5700225147751941e-06  3.3816541673234203e-05 0.0000000000000000e+00 -1.3632964563911105e-06  1.5758855081053277e-05 0.0000000000000000e+00 -2.3058687603684890e-06  4.3373562472548421e-06 0.0000000000000000e+00 -1.2246611462967548e-06  -1.6211302470526742e-05 0.0000000000000000e+00 -2.2399112322220006e-06  -2.5514037367152910e-05 0.0000000000000000e+00 -1.0593114741082011e-06  -4.4061493067005150e-05 0.0000000000000000e+00 -2.0517889583871025e-06  -5.0744973048155672e-06 0.0000000000000000e+00 6.3139147758788814e-08  -3.2415093817321425e-05 0.0000000000000000e+00 2.4745104837432733e-06  -4.2010470661922419e-05 0.0000000000000000e+00 1.2664695194873456e-06  -4.9902316087721282e-05 0.0000000000000000e+00 -6.8309308360058254e-07  -6.4118907236441922e-05 0.0000000000000000e+00 -1.7186472788921609e-06  -6.6939302218590774e-05 0.0000000000000000e+00 -3.4617287514440908e-08  -7.6985297365104609e-05 0.0000000000000000e+00 -1.2941746287878570e-06  -7.7761634242943527e-05 0.0000000000000000e+00 8.3200855098431256e-07  -7.1531521780391331e-05 0.0000000000000000e+00 -3.0901563065642232e-06  -6.5784104408695860e-05 0.0000000000000000e+00 1.7991170802236753e-06  -8.1177671666871385e-05 0.0000000000000000e+00 -2.2789506319579717e-06  -7.4562086327382114e-05 0.0000000000000000e+00 2.6907235044637256e-06  -7.3818536160203112e-05 0.0000000000000000e+00 -3.9614131381225605e-06  -7.9175270258269811e-05 0.0000000000000000e+00 -3.1058765208581051e-06  -5.9652097714198058e-05 0.0000000000000000e+00 3.1478381649769772e-06  -1.5797691665594917e-05 0.0000000000000000e+00 3.6373280358605453e-06  -5.6711936100278503e-05 0.0000000000000000e+00 2.2874960071146240e-06  -6.8626135106651415e-05 0.0000000000000000e+00 -4.1952026762874924e-06  -7.0758647737937359e-05 0.0000000000000000e+00 -3.1598193918581087e-06  -8.2453150774398695e-05 0.0000000000000000e+00 1.6373729493526692e-06  -3.4586577603683528e-05 0.0000000000000000e+00 -3.2128441962190467e-06  -6.6178956361442054e-05 0.0000000000000000e+00 3.8735933297331878e-06  2.2833966050419364e-05 0.0000000000000000e+00 3.1747667779808753e-06  -7.9563353907878030e-05 0.0000000000000000e+00 -1.3975382052415356e-06  -5.9241547108465158e-05 0.0000000000000000e+00 -4.4460511705154248e-06  -4.7351928969214875e-05 0.0000000000000000e+00 3.7471177162107676e-06  -5.5604769161580773e-05 0.0000000000000000e+00 -3.8425302068862215e-06  -5.5508699843081542e-05 0.0000000000000000e+00 -2.7112952925574900e-06  -4.7518851902385855e-05 0.0000000000000000e+00 2.1885580780425239e-06  -2.4546020621203396e-05 0.0000000000000000e+00 2.2521962253673506e-07  -5.0713588543179538e-05 0.0000000000000000e+00 4.1022503474099513e-06  -6.8083464605262755e-05 0.0000000000000000e+00 3.9325450221007945e-06  -3.4928527932602699e-05 0.0000000000000000e+00 -3.2371759472799607e-06  -3.3475986945444363e-05 0.0000000000000000e+00 -2.0983131820588430e-06  -3.2017397199318482e-05 0.0000000000000000e+00 -3.9023098330169647e-06  4.7423856348470674e-05 0.0000000000000000e+00 -1.2558623142903046e-09  -6.1607804525016900e-05 0.0000000000000000e+00 8.5935104027947994e-07  -7.2815596797984200e-05 0.0000000000000000e+00 1.8338839614065117e-06  1.8120792947489628e-05 0.0000000000000000e+00 2.1318355928457755e-06  -6.9390407472118528e-06 0.0000000000000000e+00 2.6385824856762037e-06  -2.4738143966354776e-06 0.0000000000000000e+00 3.3480081945796719e-06  -3.0413254524515727e-05 0.0000000000000000e+00 3.9363920291405616e-06  -4.5986302543586751e-05 0.0000000000000000e+00 3.3662344549384819e-06  2.4993260036263209e-05 0.0000000000000000e+00 -3.0773360606176637e-06  -5.1933793741354794e-05 0.0000000000000000e+00 -1.3352067196832171e-06  -8.2077242080467824e-06 0.0000000000000000e+00 -3.5737312235819608e-06  -1.8890841134643870e-05 0.0000000000000000e+00 -4.0223676028064396e-06  -1.1283876641205601e-05 0.0000000000000000e+00 1.4750682979464714e-06  -2.4259471615803769e-05 0.0000000000000000e+00 3.9409995613310032e-06  -7.4915059202066740e-06 0.0000000000000000e+00 -2.4965835954832258e-06  -4.8239838583627258e-05 0.0000000000000000e+00 3.9991112052954979e-06  -6.6441036773828770e-05 0.0000000000000000e+00 3.2649696265029142e-06  -7.7811983382221293e-05 0.0000000000000000e+00 2.8432244224159944e-06  -8.1753195045203934e-05 0.0000000000000000e+00 8.2577892250861807e-07  -8.4258104850416779e-05 0.0000000000000000e+00 -8.5208188349027516e-07  -4.0908882805198134e-05 0.0000000000000000e+00 -3.9470594335108993e-06  -5.7250850158097278e-05 0.0000000000000000e+00 -3.6905470588667945e-06  -8.6181473170548099e-06 0.0000000000000000e+00 -1.4931752821292431e-06  -3.6747959099041825e-06 0.0000000000000000e+00 -2.8910484553412988e-06  3.8286685337958468e-05 0.0000000000000000e+00 1.4076563162750011e-06  7.6989292161207558e-05 0.0000000000000000e+00 3.0783678344494988e-06  5.5277610953435157e-06 0.0000000000000000e+00 -3.8215832850395160e-06  1.5481707333643903e-05 0.0000000000000000e+00 -6.5426994855391875e-07  -3.1985963128960773e-05 0.0000000000000000e+00 3.1268275765655829e-06  8.1760842952420285e-05 0.0000000000000000e+00 -8.9793690869472304e-07  5.8548379916657794e-05 0.0000000000000000e+00 1.6348900395548347e-06  6.6780513044013747e-05 0.0000000000000000e+00 1.0352395021919211e-07  -6.8170352524144580e-05 0.0000000000000000e+00 -1.7233105798060211e-06  -3.1917616085433367e-05 0.0000000000000000e+00 2.7922085588023925e-07  -5.1488614080626510e-05 0.0000000000000000e+00 8.4800592593044449e-07  -5.9813437773097071e-06 0.0000000000000000e+00 -3.3192022310962429e-06  -2.6559910125418888e-05 0.0000000000000000e+00 -4.1638676779620046e-06  -5.1670674519648102e-05 0.0000000000000000e+00 -4.3732787356050278e-06  2.2427240178249651e-05 0.0000000000000000e+00 -1.7008066088997721e-07  2.5515787171489046e-06 0.0000000000000000e+00 5.0455604528048047e-07  5.3333175954072499e-05 0.0000000000000000e+00 3.0453779504467044e-06  8.1818081652411064e-05 0.0000000000000000e+00 1.1602867635834626e-06  4.6493620396155154e-05 0.0000000000000000e+00 4.2566587957891704e-06  -7.3739396929335733e-05 0.0000000000000000e+00 -1.7092227202741192e-08  -1.9323597180573951e-05 0.0000000000000000e+00 3.0785371954902984e-06  4.9629757630197472e-05 0.0000000000000000e+00 -3.4851472672533157e-06  -7.7102325366927609e-05 0.0000000000000000e+00 3.2213497610349502e-06  2.3363582256750901e-05 0.0000000000000000e+00 -2.7169014497542878e-06  2.6881434419865233e-05 0.0000000000000000e+00 3.7189400405298200e-06  1.3907837667274936e-05 0.0000000000000000e+00 9.9287834980345371e-07  -5.8626611478786182e-05 0.0000000000000000e+00 -2.7852958774716453e-06  7.3785038819037258e-05 0.0000000000000000e+00 -1.5065167932203583e-06  -1.7131488213820747e-06 0.0000000000000000e+00 3.8510417285914965e-06  6.9201809765140443e-05 0.0000000000000000e+00 2.9595571980277424e-06  -8.2473087698625835e-05 0.0000000000000000e+00 -3.6472131240813599e-07  -4.7919981842397749e-05 0.0000000000000000e+00 -9.1979591036913172e-08  -3.0537763164856765e-05 0.0000000000000000e+00 -8.9434570792777684e-07  7.7337208521052471e-05 0.0000000000000000e+00 1.3730579984136027e-07  -2.4624200014201467e-05 0.0000000000000000e+00 3.5501708522700409e-06  3.0495533379449690e-05 0.0000000000000000e+00 -3.6183228960292669e-06  -3.7546147383274424e-05 0.0000000000000000e+00 -4.3082975325100814e-06  -3.5556732603778209e-05 0.0000000000000000e+00 1.4478070610779986e-06  7.4872403274892020e-05 0.0000000000000000e+00 1.9895773585755837e-06  -6.8473238245250161e-06 0.0000000000000000e+00 -4.8011840349827615e-07  -6.3133109072045876e-05 0.0000000000000000e+00 -4.1862099203615283e-06  -4.6716122476091915e-05 0.0000000000000000e+00 -4.3093903987997794e-06  -2.8404086079958084e-05 0.0000000000000000e+00 2.3382843984185733e-06  -6.2976484240936684e-05 0.0000000000000000e+00 -4.9682690518156694e-07  -1.3003894831111995e-07 0.0000000000000000e+00 -6.4875068686203301e-09  -3.4948578934542834e-05 0.0000000000000000e+00 2.8706697887296459e-09  5.1200079737338529e-05 0.0000000000000000e+00 1.3713618957206508e-07  -2.1690522306839866e-05 0.0000000000000000e+00 8.6129762124058051e-07  3.9411106571826423e-05 0.0000000000000000e+00 1.0421714282508150e-06  -2.7012853749880682e-05 0.0000000000000000e+00 -1.9717119022401587e-06  -5.2487831543346130e-05 0.0000000000000000e+00 -1.5495474810193884e-07  1.0723051325388137e-05 0.0000000000000000e+00 -7.5267446833123142e-07  3.7262991965857739e-05 0.0000000000000000e+00 -1.2094459547662125e-06  -2.9748186435351648e-05 0.0000000000000000e+00 1.7560234134023963e-06  2.8067470354572460e-05 0.0000000000000000e+00 1.5824948217098209e-06  -1.0594838044943110e-05 0.0000000000000000e+00 -1.5872837065288944e-06  9.1603762162728180e-06 0.0000000000000000e+00 3.1005472311991117e-08  2.2905622753594513e-05 0.0000000000000000e+00 -1.9843755980981773e-06  -8.9366858581485447e-06 0.0000000000000000e+00 1.5027284429371251e-06  2.0300572829743308e-05 0.0000000000000000e+00 2.2365450200826344e-06  -3.6617053369304654e-05 0.0000000000000000e+00 -9.5710061068485261e-07  -5.2241553003300036e-05 0.0000000000000000e+00 -1.5341662452452081e-06  5.3385288432938149e-05 0.0000000000000000e+00 1.9131763558151566e-06  -7.9133892919251545e-06 0.0000000000000000e+00 2.2390924788310968e-06  1.1285024685945070e-05 0.0000000000000000e+00 6.3763574111681928e-07  4.5492839232546464e-05 0.0000000000000000e+00 -1.2897521199369851e-06  4.4537240311217110e-05 0.0000000000000000e+00 2.6305002059936838e-07  -5.1672077292266726e-05 0.0000000000000000e+00 1.5148566225454677e-06  6.0840020113814098e-05 0.0000000000000000e+00 -1.1164292833927900e-07  -1.3732563387971707e-05 0.0000000000000000e+00 -2.1088104959656342e-06  -5.9056756294685500e-05 0.0000000000000000e+00 9.8047309940661172e-07  5.8555100266543418e-05 0.0000000000000000e+00 -1.5461165716780901e-06  4.3918095694181429e-05 0.0000000000000000e+00 -2.5855828008136182e-07  -5.5962767916211431e-05 0.0000000000000000e+00 -1.8831456704063277e-06  1.4528200504914064e-05 0.0000000000000000e+00 -2.4063461180140937e-06  -2.1276412956113191e-05 0.0000000000000000e+00 -7.9664040127384336e-07  -2.0449599942622376e-05 0.0000000000000000e+00 6.0537900228147552e-07  2.4373952809168067e-05 0.0000000000000000e+00 1.4187155189225602e-06  -5.0004655651926276e-05 0.0000000000000000e+00 5.0021286659011120e-07  2.0824996004856877e-05 0.0000000000000000e+00 -1.2818090650800816e-06  -1.4729485042561074e-05 0.0000000000000000e+00 -3.7571102133282864e-07  -3.6356561054254625e-05 0.0000000000000000e+00 -2.6174155868423680e-06  5.7343787772637070e-05 0.0000000000000000e+00 1.4984816586326611e-06  8.1638531069987194e-06 0.0000000000000000e+00 3.4801243233967105e-07  2.4499584252840105e-05 0.0000000000000000e+00 -6.7344827786468817e-07  </DataArray> 
</PointData> 
</Piece>
</UnstructuredGrid>
</VTKFile>