<?xml version="1.0"?>
<VTKFile type="UnstructuredGrid"  version="0.1"  >
<UnstructuredGrid>
<Piece  NumberOfPoints="201" NumberOfCells="657">
<Points>
<DataArray  type="Float64"  NumberOfComponents="3"  format="ascii">-0.005827414938418441 0.001223080358813879 619.1325865625254  -0.001509264883700031 -0.0008290448323467989 -619.1354482780838  1160.270477172273 0.001517572195985112 -588.8804484844596  2206.771955978346 0.001023447295310695 -501.0340557372418  3037.015368037527 -0.002169419518442732 -364.1268175990005  3569.909875839284 -0.0017650202209241 -191.4664422170919  3753.506228335081 -0.0003580552143617114 0.001126002331449898  3569.911852352608 -0.0006291166460599447 191.4667562036528  3037.015467192432 -0.001466810814779541 364.1257314267707  2206.770741389566 0.002059959266402411 501.0354374413575  1160.272431274219 0.0009751190095347577 588.8793733012026  1469.856913779615 -1090.493740955037 -538.3647782994198  1460.317395492504 847.0585814306443 551.7315891889079  3572.755808352403 -970.9463908471491 -91.85231451701567  2572.727472915311 -1059.385878151411 413.0015503625835  3249.779704528639 981.998172821763 260.5051035299849  3236.276598722884 981.9886254667455 -265.0459114143194  1641.262753099364 976.084988006423 -531.2934551791872  565.5753984651921 -976.0321704572001 588.8542958809534  2556.075478830797 -976.1601273434406 -421.7334064883267  1779.191681116574 -1915.164653090017 -435.774429639832  2643.31572762929 -1877.298039436371 -300.1983828445134  1812.383962156961 -2683.432866970147 -288.2979380339586  2553.532912997121 -2518.522965133041 -141.9990647890835  1602.190323400898 -3194.797029435267 -120.6008070604807  2281.353170681945 -2867.257347963066 30.5113926317677  1198.263555606422 -3413.246739733554 55.03872915084835  1738.19546297013 -2965.38769906057 208.8084077698365  626.1323881184609 -3322.801140579695 222.0177393222044  1112.48036733194 -2710.372380586954 366.811470655191  -43.22558762586188 -2911.343353311278 367.5024679763742  2665.75167060546 -2329.682274205263 176.241965519405  2556.082889591226 976.1625871282021 421.7341367430449  2589.631106662608 1889.675382693021 310.4851833992564  3135.915811698109 1810.878165467088 140.5514944853402  416.199078575168 -2163.172108998318 491.5309448410073  1524.097415159587 -1896.978007774524 463.505906080328  1779.030287187224 1805.938156719674 449.2483312193456  1714.000762818909 2641.945020114364 314.6911950169018  3579.600690017468 -947.2849391101093 91.84134277917408  3155.940117638245 -1957.486124261874 10.63593446680743  3256.982823918584 -982.8763884277503 -257.9450078290123  565.5729650438402 976.034654979886 -588.8538953036742  2530.649723953647 951.6678694373242 -427.5079321362587  2569.818588950446 1879.504591841189 -316.7140782620478  777.5582046410894 -3223.656617179105 -250.0520369198854  -543.9894312370867 -3362.27002784511 210.1818426845372  759.0750731305261 -1964.229959354534 -504.6786746858032  3114.490800803962 1832.463112730745 -145.2475459498476  2328.931226110248 2647.101119189696 -174.8008222065662  1653.791521570506 2576.120970325075 -338.5473122466788  1305.525670555544 3208.232013545979 -188.4272055578256  576.8128619503325 3012.459682077607 -329.4109055342755  168.8290649060069 3473.214310960858 -170.9768538702981  -591.2952790604803 3099.495625660283 -304.0799205038676  -975.5971433460322 3411.137275759079 -128.9520165522196  -1719.488686575783 2913.319894376004 -233.0982235614681  -187.6466851842757 3612.501638244155 11.41953352882782  -1198.803298751012 -2798.806198226643 338.8953687552573  -1655.726272451529 -3095.229257277653 167.7938557294494  -2018.80633816779 3027.59483681092 -62.99652970348254  -2666.920166420704 2368.35375695903 -159.886205164564  -2840.734603644901 2363.138279590321 14.30788320410931  -3332.461156272098 1559.21481832078 -99.95744717103462  -3378.141833148105 1480.00783008798 93.26394241347789  -2960.684441242026 1477.792755254174 -284.5966914885882  -2731.88188065589 2186.709032616249 200.6920180061776  -3525.673430159826 646.3750340727996 -181.5290655460566  -3120.950772497121 1216.613052582626 274.0210044184719  -3001.400719155302 414.9194291367191 -365.230502413727  -3370.16909351753 -469.4371928151914 -260.716354854762  -2321.838033775142 1833.778106222757 371.8912504110384  -518.6021844822785 -1498.796474689501 556.9954241397671  -2261.435557769856 -2393.70832411413 276.4819882539959  -2697.161172781332 -635.8781688799348 -416.8664324050583  -2913.637427797987 -1492.511155660039 -295.365244567434  -3606.58326855948 410.2154638830818 156.6662017879883  -1254.886151744543 2412.647089739652 -412.3976094040837  -2568.303901575875 783.0531063705587 431.4147606659818  807.3195534059462 2437.832283551099 437.704106623479  -3474.891183606579 -1222.728169896563 -105.0146514200592  -2185.378121553649 253.9630450456076 -501.7007999085361  -1702.559399313544 1395.230587590078 497.5748997862153  -2099.809182896854 -1605.469459589491 -433.6228511034062  -2198.404244871692 -2390.501304546772 -290.7670315729475  -1852.695461143157 2691.848296219961 278.871006720789  -945.8580119077444 -3493.159512091294 39.84942801505572  -1793.17400229955 234.9232974223289 542.5716902928762  -2649.324364487601 -339.4213668836358 434.9852996757579  -1269.031466128864 -2397.204901202757 -413.8574165288779  -1273.060048053556 -3056.126312115088 -256.3379557758435  -1093.689283451377 -1517.944283061262 -532.3297124818366  1902.893940951516 3116.647008538974 -17.472739905774  -2559.189309843175 -2567.594910841634 109.810199410939  -3081.678739882874 -1734.116733758977 192.1662693490531  672.1540398040064 3138.757727591752 287.2480855152461  -242.6638672047253 2830.779004454476 383.4789528717698  -84.07493896036827 2132.979455615711 499.916103422701  -1017.100611677351 901.1799608211892 575.7307302033153  -1695.921888778085 -1957.480032904848 439.2803492500398  885.1501730897775 2383.321105760864 -442.3823783806577  -2103.665313137209 -2890.234009249652 -135.1815354759614  -278.0099176232663 1828.306599950997 -532.3048316670853  -616.1170437336029 783.9083657978065 -595.8440384363967  -417.6196902228136 3379.08082469636 210.1479915600681  -793.2931951714847 -554.8437640550004 597.684310386255  -271.2342591361476 -2964.313161597267 -352.1209529232733  -1713.927573502616 -891.7079826878283 529.4000199826695  -2641.861200357891 -1435.677864793301 365.0049346335462  -3288.855756044864 -690.1088588179097 274.2645764416221  -3598.251651437354 -895.9308272910398 86.9408301312736  -3737.358976421062 -116.5343092219233 -53.82715601599045  -1441.912525823506 1553.450982140449 -506.155446152681  -2186.730158097504 1718.40385103451 -408.5232059450792  -319.1726292545222 -3404.772260984684 -202.5580535826095  -127.695582332639 2672.725655661744 -416.7677084856052  1496.601171183252 3180.409966716949 161.6801426939975  3235.207833099517 -939.4527854083093 269.8795576068222  187.5982577855569 -1024.305888260043 -592.9985094574258  593.2199335775748 -3528.486314268783 -95.34555704630841  -1143.096978182815 2310.661007632741 437.5744897636272  3588.026151105366 910.3446048113024 -93.81104442855397  2397.985616374747 2623.071762351699 159.3083632705773  2828.855250165362 2377.449044195778 -7.080032934645072  -2865.634914339656 -2150.16410622896 -156.6157021717567  -1243.443324532034 3401.757018812881 48.19584390800775  -2086.219053574735 2933.766011995241 113.2737982824962  -203.6035043801611 -2211.484792947304 -488.8667834192378  -874.9466757656771 -403.6410175365384 -598.1443413114421  -1844.396626702685 -647.8486815310964 -527.8702304133332  867.0024088064401 3514.960461315046 -31.62751497650386  101.5891597740032 -3593.918520370131 68.79254008804318  2072.724948095997 -2285.698159250547 336.9293511298691  3594.365426631055 921.9905813366528 83.26176875504252  1642.180895773356 -969.0589250486056 531.5935902606284  -3174.556114052511 -1928.245804526922 15.29671207592695  -671.9326276031338 -2386.598949190989 451.9582909822311  1829.063403737771 1750.819648623931 -450.1746760507626  -3216.233065756612 288.3737336331334 315.6311935333798  842.657445417373 -2693.674121549257 -389.2805512872583  919.5890496988424 1737.021293655595 521.5454397424731  534.6383984916025 3499.167364300407 130.1044385083036  -2334.479465862191 2267.888790373966 -290.6905504764977  3139.01392847629 -1743.888905298518 -161.9015794960633  -57.459665694599 940.7916438406681 597.7601889809231  2843.298692045943 -1697.181962240604 281.2843835309343  -3644.31864074929 862.3005721335476 -14.09398394447449  -1939.908692010128 -3096.864579200226 5.971809368630847  -1184.671081671207 -3380.026379240028 -102.6001631860054  3367.23104845844 1598.311145268309 -4.311353013276949  -837.9655131250814 1782.099710461536 520.8300855722737  1042.754893646714 1618.370773426868 -526.4086394400972  -1265.837505058811 265.7289549366844 -581.170629128617  -1372.20335301311 3165.138717956359 196.7144858930698  3192.501027536945 -1621.947728765888 170.3684105899281  -255.6416926743417 -3590.92831772302 -62.16182199731691  -2407.618558652961 940.4520875584275 -447.1160377068171  -1645.583619260052 799.1874298083152 -539.525400980055  -1049.594369139597 2910.243039202349 324.5544224924253  -2639.105258605084 -2564.541512312054 -34.64753298719875  0.002094976274412495 -0.0002489507134549145 -0.000359021662957136  -1197.200514968138 -1415.355948335562 17.15005771710019  1810.352192360023 551.974326117508 -2.830200725681066  -721.1962423745724 1487.662464969542 136.4088261154349  1349.400923236924 -1054.602131511215 124.1068290159425  -879.1916235337872 154.3648106243211 -275.6953596288264  -1861.975236363493 280.9360177190108 0.2271199480721267  355.7266288260251 1682.73080617963 -118.4460909823152  1257.620963230756 -829.2404691469251 -185.4987930991622  -978.2827246435437 -157.5589686966384 267.4007132986656  938.0502767511643 1252.091334682574 215.6149282388406  -346.3905155136212 -1428.855576782687 -234.2069086932213  309.8093099379008 -2063.666133100379 1.144900559909706  746.
[...]
<PointData  Vectors="Tidal Force"> 
<DataArray  type="Float64"  Name="Tidal Force"  NumberOfComponents="3" format="ascii">0.0000000000000000e+00 0.0000000000000000e+00 0.0000000000000000e+00  0.0000000000000000e+00 0.0000000000000000e+00 0.0000000000000000e+00  0.0000000000000000e+00 0.0000000000000000e+00 0.0000000000000000e+00  0.0000000000000000e+00 0.0000000000000000e+00 0.0000000000000000e+00  0.0000000000000000e+00 0.0000000000000000e+00 0.0000000000000000e+00  0.0000000000000000e+00 0.0000000000000000e+00 0.0000000000000000e+00  0.0000000000000000e+00 0.0000000000000000e+00 0.0000000000000000e+00  0.0000000000000000e+00 0.0000000000000000e+00 0.0000000000000000e+00  0.0000000000000000e+00 0.0000000000000000e+00 0.0000000000000000e+00  0.0000000000000000e+00 0.0000000000000000e+00 0.0000000000000000e+00  0.0000000000000000e+00 0.0000000000000000e+00 0.0000000000000000e+00  0.0000000000000000e+00 -1.4036479284137328e-12 0.0000000000000000e+00  0.0000000000000000e+00 1.0903096099946505e-12 0.0000000000000000e+00  0.0000000000000000e+00 -1.2497620035511805e-12 0.0000000000000000e+00  0.0000000000000000e+00 -1.3636112519685513e-12 0.0000000000000000e+00  0.0000000000000000e+00 1.2639894186969716e-12 0.0000000000000000e+00  0.0000000000000000e+00 1.2639774477965544e-12 0.0000000000000000e+00  0.0000000000000000e+00 1.2563819114818683e-12 0.0000000000000000e+00  0.0000000000000000e+00 -1.2563220569797825e-12 0.0000000000000000e+00  0.0000000000000000e+00 -1.2564836641354142e-12 0.0000000000000000e+00  0.0000000000000000e+00 -2.4651375956540782e-12 0.0000000000000000e+00  0.0000000000000000e+00 -2.4163920891554150e-12 0.0000000000000000e+00  0.0000000000000000e+00 -3.4540297373145753e-12 0.0000000000000000e+00  0.0000000000000000e+00 -3.2417617311175490e-12 0.0000000000000000e+00  0.0000000000000000e+00 -4.1122317404013226e-12 0.0000000000000000e+00  0.0000000000000000e+00 -3.6906345840596821e-12 0.0000000000000000e+00  0.0000000000000000e+00 -4.3934162202999201e-12 0.0000000000000000e+00  0.0000000000000000e+00 -3.8169455398113131e-12 0.0000000000000000e+00  0.0000000000000000e+00 -4.2769992137430695e-12 0.0000000000000000e+00  0.0000000000000000e+00 -3.4886974649226622e-12 0.0000000000000000e+00  0.0000000000000000e+00 -3.7473826374872135e-12 0.0000000000000000e+00  0.0000000000000000e+00 -2.9986866126969696e-12 0.0000000000000000e+00  0.0000000000000000e+00 1.2564776786852057e-12 0.0000000000000000e+00  0.0000000000000000e+00 2.4323253576106515e-12 0.0000000000000000e+00  0.0000000000000000e+00 2.3308959183760800e-12 0.0000000000000000e+00  0.0000000000000000e+00 -2.7843655970784010e-12 0.0000000000000000e+00  0.0000000000000000e+00 -2.4417225144381190e-12 0.0000000000000000e+00  0.0000000000000000e+00 2.3245393702545704e-12 0.0000000000000000e+00  0.0000000000000000e+00 3.4006215651034300e-12 0.0000000000000000e+00  0.0000000000000000e+00 -1.2193140183401422e-12 0.0000000000000000e+00  0.0000000000000000e+00 -2.5196111780023505e-12 0.0000000000000000e+00  0.0000000000000000e+00 -1.2651206687863929e-12 0.0000000000000000e+00  0.0000000000000000e+00 1.2563160715295740e-12 0.0000000000000000e+00  0.0000000000000000e+00 1.2249523124366228e-12 0.0000000000000000e+00  0.0000000000000000e+00 2.4192291925542815e-12 0.0000000000000000e+00  0.0000000000000000e+00 -4.1493774443957600e-12 0.0000000000000000e+00  0.0000000000000000e+00 -4.3278037151134839e-12 0.0000000000000000e+00  0.0000000000000000e+00 -2.5282900808047892e-12 0.0000000000000000e+00  0.0000000000000000e+00 2.3586803782443013e-12 0.0000000000000000e+00  0.0000000000000000e+00 3.4072594293847433e-12 0.0000000000000000e+00  0.0000000000000000e+00 3.3158975174010017e-12 0.0000000000000000e+00  0.0000000000000000e+00 4.1295237060539056e-12 0.0000000000000000e+00  0.0000000000000000e+00 3.8775362522727522e-12 0.0000000000000000e+00  0.0000000000000000e+00 4.4706045861897481e-12 0.0000000000000000e+00  0.0000000000000000e+00 3.9895659238267150e-12 0.0000000000000000e+00  0.0000000000000000e+00 4.3906988259052256e-12 0.0000000000000000e+00  0.0000000000000000e+00 3.7499264538258601e-12 0.0000000000000000e+00  0.0000000000000000e+00 4.6498927617375072e-12 0.0000000000000000e+00  0.0000000000000000e+00 -3.6025227715391986e-12 0.0000000000000000e+00  0.0000000000000000e+00 -3.9840772659854489e-12 0.0000000000000000e+00  0.0000000000000000e+00 3.8970129072514670e-12 0.0000000000000000e+00  0.0000000000000000e+00 3.0484616166315081e-12 0.0000000000000000e+00  0.0000000000000000e+00 3.0417519269476916e-12 0.0000000000000000e+00  0.0000000000000000e+00 2.0069633530878148e-12 0.0000000000000000e+00  0.0000000000000000e+00 1.9050071942348894e-12 0.0000000000000000e+00  0.0000000000000000e+00 1.9021641053858146e-12 0.0000000000000000e+00  0.0000000000000000e+00 2.8146579605840167e-12 0.0000000000000000e+00  0.0000000000000000e+00 8.3198954989282186e-13 0.0000000000000000e+00  0.0000000000000000e+00 1.5659853089707976e-12 0.0000000000000000e+00  0.0000000000000000e+00 5.3406975121103798e-13 0.0000000000000000e+00  0.0000000000000000e+00 -6.0424316945641191e-13 0.0000000000000000e+00  0.0000000000000000e+00 2.3603742606533294e-12 0.0000000000000000e+00  0.0000000000000000e+00 -1.9292063694281719e-12 0.0000000000000000e+00  0.0000000000000000e+00 -3.0811002766188862e-12 0.0000000000000000e+00  0.0000000000000000e+00 -8.1848637422226888e-13 0.0000000000000000e+00  0.0000000000000000e+00 -1.9211080552959651e-12 0.0000000000000000e+00  0.0000000000000000e+00 5.2801846105016527e-13 0.0000000000000000e+00  0.0000000000000000e+00 3.1054790153184265e-12 0.0000000000000000e+00  0.0000000000000000e+00 1.0079139024233596e-12 0.0000000000000000e+00  0.0000000000000000e+00 3.1378962136480871e-12 0.0000000000000000e+00  0.0000000000000000e+00 -1.5738621614452865e-12 0.0000000000000000e+00  0.0000000000000000e+00 3.2688937769130354e-13 0.0000000000000000e+00  0.0000000000000000e+00 1.7958924369325041e-12 0.0000000000000000e+00  0.0000000000000000e+00 -2.0665125972129617e-12 0.0000000000000000e+00  0.0000000000000000e+00 -3.0769703159749673e-12 0.0000000000000000e+00  0.0000000000000000e+00 3.4648574167418936e-12 0.0000000000000000e+00  0.0000000000000000e+00 -4.4962761821343412e-12 0.0000000000000000e+00  0.0000000000000000e+00 3.0237895908717475e-13 0.0000000000000000e+00  0.0000000000000000e+00 -4.3688998162455829e-13 0.0000000000000000e+00  0.0000000000000000e+00 -3.0856013351757377e-12 0.0000000000000000e+00  0.0000000000000000e+00 -3.9337396297313042e-12 0.0000000000000000e+00  0.0000000000000000e+00 -1.9538544533870982e-12 0.0000000000000000e+00  0.0000000000000000e+00 4.0116402641959519e-12 0.0000000000000000e+00  0.0000000000000000e+00 -3.3049202017184695e-12 0.0000000000000000e+00  0.0000000000000000e+00 -2.2321000772332845e-12 0.0000000000000000e+00  0.0000000000000000e+00 4.0400950944875340e-12 0.0000000000000000e+00  0.0000000000000000e+00 3.6436847126235920e-12 0.0000000000000000e+00  0.0000000000000000e+00 2.7454960834238928e-12 0.0000000000000000e+00  0.0000000000000000e+00 1.1599622940718782e-12 0.0000000000000000e+00  0.0000000000000000e+00 -2.5195992071019335e-12 0.0000000000000000e+00  0.0000000000000000e+00 3.0677287808529220e-12 0.0000000000000000e+00  0.0000000000000000e+00 -3.7202086935402683e-12 0.0000000000000000e+00  0.0000000000000000e+00 2.3533293857578325e-12 0.0000000000000000e+00  0.0000000000000000e+00 1.0090212107119467e-12 0.0000000000000000e+00  0.0000000000000000e+00 4.3494411176174942e-12 0.0000000000000000e+00  0.0000000000000000e+00 -7.1417194798716361e-13 0.0000000000000000e+00  0.0000000000000000e+00 -3.8155569153629228e-12 0.0000000000000000e+00  0.0000000000000000e+00 -1.1477759174472124e-12 0.0000000000000000e+00  0.0000000000000000e+00 -1.8479538828467195e-12 0.0000000000000000e+00  0.0000000000000000e+00 -8.8828270910450222e-13 0.0000000000000000e+00  0.0000000000000000e+00 -1.1532047207863931e-12 0.0000000000000000e+00  0.0000000000000000e+00 -1.4999538222697596e-13 0.0000000000000000e+00  0.0000000000000000e+00 1.9995413948291770e-12 0.0000000000000000e+00  0.0000000000000000e+00 2.2118632700780808e-12 0.0000000000000000e+00  0.0000000000000000e+00 -4.3825047445696823e-12 0.0000000000000000e+00  0.0000000000000000e+00 3.4402392600340105e-12 0.0000000000000000e+00  0.0000000000000000e+00 4.0937187429061881e-12 0.0000000000000000e+00  0.0000000000000000e+00 -1.2092285347386874e-12 0.0000000000000000e+00  0.0000000000000000e+00 -1.3184570155950355e-12 0.0000000000000000e+00  0.0000000000000000e+00 -4.5417476473689117e-12 0.0000000000000000e+00  0.0000000000000000e+00 2.9742061213438838e-12 0.0000000000000000e+00  0.0000000000000000e+00 1.1717596164329862e-12 0.0000000000000000e+00  0.0000000000000000e+00 3.3763266227068103e-12 0.0000000000000000e+00  0.0000000000000000e+00 3.0601631717892794e-12 0.0000000000000000e+00  0.0000000000000000e+00 -2.7676183073947985e-12 0.0000000000000000e+00  0.0000000000000000e+00 4.3786201873843150e-12 0.0000000000000000e+00  0.0000000000000000e+00 3.7762384929427709e-12 0.0000000000000000e+00  0.0000000000000000e+00 -2.8465484392953225e-12 0.0000000000000000e+00  0.0000000000000000e+00 -5.1955503445523533e-13 0.0000000000000000e+00  0.0000000000000000e+00 -8.3389292305914980e-13 0.0000000000000000e+00  0.0000000000000000e+00 4.5243299872619472e-12 0.0000000000000000e+00  0.0000000000000000e+00 -4.6259689172538192e-12 0.0000000000000000e+00  0.0000000000000000e+00 -2.9420702391740261e-12 0.0000000000000000e+00  0.0000000000000000e+00 1.1867531692054752e-12 0.0000000000000000e+00  0.0000000000000000e+00 -1.2473378962167063e-12 0.0000000000000000e+00  0.0000000000000000e+00 -2.4819686816406005e-12 0.0000000000000000e+00  0.0000000000000000e+00 -3.0719545087001785e-12 0.0000000000000000e+00  0.0000000000000000e+00 2.2535938289322899e-12 0.0000000000000000e+00  0.0000000000000000e+00 3.7118170923478407e-13 0.0000000000000000e+00  0.0000000000000000e+00 -3.4672096986738650e-12 0.0000000000000000e+00  0.0000000000000000e+00 2.2358409836136462e-12 0.0000000000000000e+00  0.0000000000000000e+00 4.5040093838038238e-12 0.0000000000000000e+00  0.0000000000000000e+00 2.9191519503253793e-12 0.0000000000000000e+00  0.0000000000000000e+00 -2.2446695226712993e-12 0.0000000000000000e+00  0.0000000000000000e+00 1.2109523443987581e-12 0.0000000000000000e+00  0.0000000000000000e+00 -2.1845576462265458e-12 0.0000000000000000e+00  0.0000000000000000e+00 1.1099239303281622e-12 0.0000000000000000e+00  0.0000000000000000e+00 -3.9861781590086597e-12 0.0000000000000000e+00  0.0000000000000000e+00 -4.3506561640098358e-12 0.0000000000000000e+00  0.0000000000000000e+00 2.0572830329913338e-12 0.0000000000000000e+00  0.0000000000000000e+00 2.2938579524853971e-12 0.0000000000000000e+00  0.0000000000000000e+00 2.0831102506413495e-12 0.0000000000000000e+00  0.0000000000000000e+00 3.4203256671900702e-13 0.0000000000000000e+00  0.0000000000000000e+00 4.0740565389710088e-12 0.0000000000000000e+00  0.0000000000000000e+00 -2.0877190473019551e-12 0.0000000000000000e+00  0.0000000000000000e+00 -4.6221202727697040e-12 0.0000000000000000e+00  0.0000000000000000e+00 1.2105154065335317e-12 0.0000000000000000e+00  0.0000000000000000e+00 1.0286834146471270e-12 0.0000000000000000e+00  0.0000000000000000e+00 3.7459640857877808e-12 0.0000000000000000e+00  0.0000000000000000e+00 -3.3009877609314329e-12 0.0000000000000000e+00  0.0000000000000000e+00 0.0000000000000000e+00 0.0000000000000000e+00  0.0000000000000000e+00 -1.8217974654352317e-12 0.0000000000000000e+00  0.0000000000000000e+00 7.1048491065867932e-13 0.0000000000000000e+00  0.0000000000000000e+00 1.9148712161786267e-12 0.0000000000000000e+00  0.0000000000000000e+00 -1.3574522237039240e-12 0.0000000000000000e+00  0.0000000000000000e+00 1.9869300512397025e-13 0.0000000000000000e+00  0.0000000000000000e+00 3.6161097435126711e-13 0.0000000000000000e+00  0.0000000000000000e+00 2.1659488815280757e-12 0.0000000000000000e+00  0.0000000000000000e+00 -1.0673733647953780e-12 0.0000000000000000e+00  0.0000000000000000e+00 -2.0280500941726365e-13 0.0000000000000000e+00  0.0000000000000000e+00 1.6116483086120424e-12 0.0000000000000000e+00  0.0000000000000000e+00 -1.8391732273907349e-12 0.0000000000000000e+00  0.0000000000000000e+00 -2.6562769626148225e-12 0.0000000000000000e+00  0.0000000000000000e+00 7.0540326343159618e-13 0.0000000000000000e+00  0.0000000000000000e+00 -2.0685536357340871e-12 0.0000000000000000e+00  0.0000000000000000e+00 -2.5242439164637904e-13 0.0000000000000000e+00  0.0000000000000000e+00 2.0238004245245462e-12 0.0000000000000000e+00  0.0000000000000000e+00 -9.6666816503604540e-13 0.0000000000000000e+00  0.0000000000000000e+00 1.2133704662830237e-13 0.0000000000000000e+00  0.0000000000000000e+00 1.2549454034318096e-12 0.0000000000000000e+00  0.0000000000000000e+00 2.8427716202137102e-12 0.0000000000000000e+00  0.0000000000000000e+00 1.6818157414072076e-12 0.0000000000000000e+00  0.0000000000000000e+00 2.3616312051971311e-12 0.0000000000000000e+00  0.0000000000000000e+00 1.0686841783910568e-12 0.0000000000000000e+00  0.0000000000000000e+00 -8.8646911769130298e-13 0.0000000000000000e+00  0.0000000000000000e+00 1.8690645657323758e-12 0.0000000000000000e+00  0.0000000000000000e+00 -9.8230814643106121e-13 0.0000000000000000e+00  0.0000000000000000e+00 1.6824501991293170e-13 0.0000000000000000e+00  0.0000000000000000e+00 -2.3237612617274550e-12 0.0000000000000000e+00  0.0000000000000000e+00 8.5776289849096077e-13 0.0000000000000000e+00  0.0000000000000000e+00 -9.1290685126259406e-13 0.0000000000000000e+00  0.0000000000000000e+00 -2.9196966262943598e-12 0.0000000000000000e+00  0.0000000000000000e+00 -3.0741272271258925e-12 0.0000000000000000e+00  0.0000000000000000e+00 -2.7104093743012057e-12 0.0000000000000000e+00  0.0000000000000000e+00 2.3141725704933123e-12 0.0000000000000000e+00  0.0000000000000000e+00 -2.6401701161035377e-12 0.0000000000000000e+00  0.0000000000000000e+00 3.1151694592061147e-12 0.0000000000000000e+00  0.0000000000000000e+00 -1.1760332278819110e-12 0.0000000000000000e+00  0.0000000000000000e+00 1.5123915878031858e-12 0.0000000000000000e+00  0.0000000000000000e+00 1.3966569225701130e-12 0.0000000000000000e+00  0.0000000000000000e+00 7.5207181870788244e-13 0.0000000000000000e+00  </DataArray> 
</PointData> 
</Piece>
</UnstructuredGrid>
</VTKFile>