<?xml version="1.0"?>
<VTKFile type="UnstructuredGrid"  version="0.1"  >
<UnstructuredGrid>
<Piece  NumberOfPoints="201" NumberOfCells="657">
<Points>
<DataArray  type="Float64"  NumberOfComponents="3"  format="ascii">-0.01185906187927818 0.002489442730350308 783.9029586638801  -0.003076313075274398 -0.001688930659030626 -783.908778364639  1470.79434477216 0.003086465449358714 -745.6384405839021  2797.222811473019 0.00207891387416556 -634.4862092908057  3849.343331986332 -0.004413667411899984 -461.1932042193176  4524.531832151429 -0.003589367236302857 -242.5320177176888  4757.131872776536 -0.0007279146882216004 0.002292237914926584  4524.535849586459 -0.001280181693690938 242.5326630792526  3849.343532367863 -0.002984828909524015 461.1910021496821  2797.22034320957 0.004187601832244444 634.4890212801555  1470.798316470055 0.001984300033112811 745.636259944395  1863.15834058516 -1380.824023037014 -681.7089061743058  1851.093386587497 1072.57471293237 698.6261628525872  4528.040525891573 -1229.605607450989 -116.3514716321716  3260.913119583998 -1341.507089916283 523.0515984890078  4118.837018912653 1243.569896048261 329.9663797903867  4101.729112907266 1243.559133331996 -335.7157815284214  2080.422253216627 1235.96346708692 -672.7654845904301  716.935506564667 -1235.85601739174 745.5852411076494  3239.822269884924 -1236.116307066138 -534.1059806568628  2255.090677654307 -2425.104349312834 -551.8431068726746  3350.174468099899 -2377.265026310908 -380.2059666542451  2296.959556983875 -3397.985252865871 -365.1046785049544  3236.180425904711 -3189.275333481098 -179.8466420486054  2030.445722882745 -4045.523232024975 -152.7323794488883  2891.165621451094 -3630.853748248946 38.64362742768147  1518.520404334673 -4322.105048754395 69.701026033828  2202.859476038722 -3755.029265301956 264.4413912422725  793.5028639866694 -4207.513702114785 281.151000267174  1409.962356666811 -3432.011957516796 464.5014933340109  -54.7829688201829 -3686.45239814048 465.3641284222411  3378.449936334368 -2950.151976922436 223.2187277517718  3239.83734485245 1236.121308597793 534.1074740019678  3282.13990012544 2392.931874428807 393.2320498430838  3974.34914038816 2293.2338081668 178.0273603717553  527.5326109245336 -2739.056412604981 622.3880446245036  1931.800013294993 -2402.047724907532 586.9382572900687  2254.906647450985 2286.792791078863 568.9019284690111  2172.292115721209 3345.431770242406 398.5217688474456  4536.719373226236 -1199.640704823058 116.3381129815548  3999.679030457297 -2478.895290627937 13.47306950107142  4127.970922537586 -1244.683752972443 -326.7220378536887  716.9305444633193 1235.861072220776 -745.5844246849974  3207.608595583622 1205.09806102909 -541.4165045589789  3257.033639499643 2380.050886355014 -401.1193792251182  985.4166251493426 -4081.972033721998 -316.6516753685385  -689.4075225835344 -4257.490139006778 266.162867882285  962.1496753004277 -2487.155837277629 -639.0367832053935  3947.198231354039 2320.563596237353 -183.9742838795391  2951.53551335409 3352.063460229859 -221.3861392946629  2096.011791044901 3262.067761124815 -428.7278933424068  1654.503040664559 4062.494120833208 -238.6225654772082  731.035382417851 3814.512788676674 -417.1365738829674  213.9492078172949 4397.974432490842 -216.5162910093958  -749.3823639135403 3924.729262880312 -385.060852967738  -1236.360046258285 4319.410900898596 -163.3022636092153  -2179.178317262334 3689.090187326195 -295.2007565878371  -237.8037713975431 4574.362753587797 14.4621146479575  -1519.348669055031 -3544.00957777718 429.1567860712885  -2098.31732175177 -3919.445308656047 212.4988851103435  -2558.434407931927 3833.854460113174 -79.78378577667443  -3379.912569219745 2999.127063868147 -202.5056575713418  -3600.143990981687 2992.556494092723 18.12186320522768  -4223.454583252482 1974.560906761822 -126.6139991400887  -4281.350648784088 1874.260082349947 118.1337671861554  -3752.419948898731 1871.396348498567 -360.4639224484511  -3462.28957073455 2769.108722158507 254.1896532129791  -4468.437510094558 818.5640380071223 -229.9436543592393  -3955.553765173636 1540.668618021789 347.0757532030687  -3804.195929201186 525.4286977267926 -462.5880789690746  -4271.43623638266 -594.4827075034347 -330.2397392729721  -2942.808814513886 2322.110270347696 470.9791482212902  -657.3741918806309 -1897.794170039132 705.2544133082575  -2866.103701936582 -3031.16312812587 350.1548957376324  -3418.654398104111 -805.2230282243332 -527.9557043787818  -3692.802449115817 -1890.029795218748 -374.1004203059218  -4570.97055110237 519.4957059994809 198.4527139979599  -1590.499286557067 3055.015890582527 -522.2243393032267  -3255.346662617064 991.5854064338426 546.3700235533106  1023.24737989373 3086.868281430279 554.2521080051166  -4403.984288021124 -1548.4537313075 -133.0242489981278  -2770.096895563876 321.5886164597976 -635.3328567285348  -2158.061126267035 1766.711992531833 630.0796075820048  -2661.482953382511 -2032.973538587855 -549.1354903520629  -2786.229905758696 -3027.092872851766 -368.2442244417534  -2348.043099376461 3408.648514224614 353.1682926009909  -1198.654296666014 -4423.279629922185 50.46499609392277  -2273.014678805868 297.4746371341495 687.0470944256788  -3358.057902158737 -429.8138442050948 550.8937464893788  -1608.431155716627 -3035.463974085184 -524.0735037512644  -1613.395209728948 -3869.873585404979 -324.6209304791057  -1386.322867930623 -1922.060022203469 -674.0518644752592  2411.524302374429 3946.603379471009 -22.12795056203648  -3243.339725533955 -3251.419917682095 139.078402695972  -3905.653768986138 -2196.015672047221 243.4022733090015  851.8487905306898 3974.454860930146 363.7512054567954  -307.5613714211553 3584.434610388366 485.5895597599299  -106.5673071362167 2700.820423604076 633.0004643115136  -1289.289760975786 1141.090722463943 728.9902842123241  -2149.549216787253 -2478.682896500451 556.2785284174392  1121.896587766298 3017.847973995846 -560.1762434523586  -2666.010049341891 -3659.91865344336 -171.205404248642  -352.3899129332459 2315.026887619327 -673.9992879782759  -781.0097215496453 992.5907589293331 -754.4344346160952  -529.2557672501806 4278.771777985127 266.1194356868551  -1005.605441394346 -702.5473202574418 756.7662520762832  -343.756574049456 -3753.530940979249 -445.8883288978  -2172.525397227611 -1129.121930656004 670.3728448448487  -3348.443891689289 -1818.022468893341 462.2748620277397  -4168.386403430986 -873.9330102560976 347.3979215451864  -4560.341433294007 -1134.608022814255 110.1309129847371  -4736.663770277015 -147.5795868194179 -68.18712226420806  -1827.688753105415 1967.044953546942 -640.9333430463623  -2771.620718487904 2175.992481618543 -517.3580546254722  -404.4951927900028 -4311.304230836107 -256.5082244345124  -161.8474811599974 3384.289851721756 -527.7368995350755  1896.647072363089 4027.287994004575 204.7537000079566  4100.385209965079 -1189.693293479277 341.8360427818885  237.7969130546627 -1296.977722964358 -750.8232361861926  751.7683684593038 -4467.98419366975 -120.7423834464353  -1448.833639242345 2925.858962754334 554.0963840157506  4547.393721956801 1152.860736935131 -118.8329665860161  3039.045112494162 3321.646266606411 201.7671500180692  3585.087932375014 3010.676980639587 -8.967543254320942  -3631.777647854811 -2722.851073860022 -198.3659722527843  -1575.785737641435 4307.563753637392 61.03598895406288  -2643.88334435508 3715.044542366641 143.4594150672043  -258.0687493338542 -2800.2266319268 -619.0118238161845  -1109.113813826317 -511.0936676486995 -757.3540581330287  -2337.915474594598 -820.3399995870492 -668.4428750964451  1098.716992626401 4450.875458045522 -40.05313095681834  128.732614778187 -4550.829975683937 87.11630802130485  2626.99163176978 -2894.354464532239 426.6970738578412  4555.422231248598 1167.609000365323 105.4699334255942  2081.581578272429 -1227.066641725562 673.1463309506471  -4023.269854674785 -2441.872527252916 19.37579151437476  -851.6572756746623 -3021.985846792211 572.2934150954384  2318.328234748793 2217.000297398959 -570.0750540871084  -4076.41046125662 365.1849956012256 399.7843334179863  1067.997252444652 -3410.843779456809 -492.9437508596446  1165.621208999053 2199.458556265689 660.3928329441314  677.5285352685545 4430.853312242653 164.7596761426903  -2958.703862652704 2871.844149609999 -368.1535316120272  3978.304996498991 -2208.396520744309 -205.0678171681303  -72.83970490920308 1191.232916490633 756.8489332442888  3603.628850736307 -2149.202104772448 356.2618949238149  -4618.717233026151 1092.022437756457 -17.85394332563771  -2458.429307946429 -3921.562025857844 7.561990391920212  -1501.307716200421 -4280.038126079937 -129.9335342167066  4267.493529751416 2024.077559164756 -5.461562390982367  -1062.158673070555 2256.538326026823 659.4869148234927  1321.750274974326 2049.224305446138 -666.5545225110429  -1604.604654610208 336.4719325076172 -735.8854219478652  -1739.015642257597 4007.934929488099 249.1195033666833  4046.109945792459 -2053.979599724094 215.794915655781  -323.9756973531497 -4547.0453258413 -78.71942624150414  -3051.697169136361 1190.887485307512 -566.235537313951  -2085.909896888701 1011.966334129909 -683.1880516718815  -1330.230908523615 3685.111059289184 410.9957570625928  -3344.598736532122 -3247.56835629845 -43.8830056971465  0.004250279165931386 -0.0005072158209702219 -0.0007302158140041294  -1517.549916363316 -1792.165866328199 21.71429647719636  2294.797991393617 698.9371990152883 -3.583304902451499  -914.1846447704856 1883.705478173576 172.7200407025807  1710.502166101059 -1335.370527255249 157.1480485077873  -1114.517715254139 195.4590435175711 -349.0764146065711  -2360.242439602873 355.7376530369505 0.2868456331956446  450.9162526615024 2130.69508601765 -149.9738559960574  1594.186750840497 -1050.006174891974 -234.8796970221911  -1240.120538504352 -199.5032717842757 338.5762661858982  1189.079603620384 1585.423484849677 273.0106839594876  -439.0843453779306 -1809.232491917777 -296.5456763171343  392.6941431321706 -2613.052698403458 1.449331425630494  946.829
[...]
<PointData  Vectors="Forcing"> 
<DataArray  type="Float64"  Name="Forcing"  NumberOfComponents="3" format="ascii">-4.8463743188464511e-06 -1.4916229349209146e-06 -2.3556118221087461e-04  -3.1630553006928999e-06 -5.8309186918472276e-07 2.3466972512233101e-04  2.4458461048287027e-05 7.1623141288347425e-07 2.1998225914704675e-04  4.3121753924279055e-05 1.9655034722369735e-06 2.0000706537320629e-04  6.5589139399337585e-05 2.1266912170758427e-08 1.0462251020597723e-04  7.4003339880285377e-05 2.8784394791381460e-06 6.7817043213440711e-05  7.4487000515421737e-05 -1.0923837578306360e-06 1.5691109469920006e-05  6.9236101555151386e-05 -2.4220052271250046e-06 -5.8979522407209789e-05  6.5158768068190783e-05 4.5760773127228113e-07 -1.1344471695169156e-04  4.2724297809099856e-05 8.0974482282175316e-07 -1.9505730733972577e-04  2.2624830897292829e-05 3.8377821655499466e-06 -2.1192335594482365e-04  3.2736643673637082e-05 1.1149813819928393e-05 1.5279819481955239e-04  2.8765245088481760e-05 -1.0901317773011055e-05 -2.0762401615094533e-04  6.6184920261604986e-05 1.3306027904246685e-05 2.8632226944800771e-05  5.2700346146586268e-05 1.2493683292057625e-05 -1.6590753664190677e-04  6.9438923813026804e-05 -1.0476394757283410e-05 -9.7623286538522331e-05  6.8009787259548668e-05 -1.1472814286596447e-05 1.0455351223156902e-04  3.4819092452361637e-05 -1.0225846929912608e-05 1.8712201795624604e-04  1.1901816978733589e-05 9.7245185865174076e-06 -1.7851850667150094e-04  4.9772886969540089e-05 1.4480723452447080e-05 1.6947673308648000e-04  3.5130403774168713e-05 2.3839456987194187e-05 1.6542401149153565e-04  5.0026261683060825e-05 2.7029391606198070e-05 1.1539088458342587e-04  3.6348579121754266e-05 3.2700484521069203e-05 9.0441395169900461e-05  4.8776690337139377e-05 3.2758593420900486e-05 4.2057959618577967e-05  3.3716728942152042e-05 3.5501005426570324e-05 4.3076740856559469e-05  4.2742589818980507e-05 3.9533461508926848e-05 -2.4708531802235987e-05  2.1080899512119197e-05 4.2244845328159899e-05 -2.5064963975327526e-05  4.0687657267913732e-05 2.6063717647005563e-05 -5.5280726036904275e-05  1.3532263265373123e-05 3.7853092573549986e-05 -8.2769490176422611e-05  2.3496596619898295e-05 2.9359046001169451e-05 -1.0916255539170793e-04  -8.2216608745107708e-08 3.6537405610362530e-05 -1.3127818815760232e-04  5.2483910873531378e-05 3.2067400583267847e-05 -6.9486173358609469e-05  4.5355634988309426e-05 -1.4722451932520306e-05 -1.7931706016179925e-04  5.1534875027849859e-05 -2.4585066819834756e-05 -1.0799748212256112e-04  6.7208350973428906e-05 -1.7415987611154402e-05 -6.0495593547585643e-05  9.3445200340627369e-06 2.5909501796694226e-05 -1.9539753768827407e-04  3.0118525843633633e-05 2.3917932385517553e-05 -1.8746138702873088e-04  3.0796150571298236e-05 -2.5393784058826093e-05 -1.7739884371509139e-04  3.0843806730445700e-05 -3.3736710098190281e-05 -1.0697633988363975e-04  6.2635363061768569e-05 1.0525970992292460e-05 -4.1903275387153757e-05  5.8944441873214962e-05 2.6507206674659773e-05 -9.2512471008786567e-06  6.3593225062286732e-05 1.0822473515666114e-05 1.1011435701513316e-04  1.2981030647001680e-05 -1.3968388119254923e-05 2.3827990897516707e-04  4.7650084189684879e-05 -1.2316196565195546e-05 1.7347258577524074e-04  5.0850554632015726e-05 -2.3198819140033988e-05 1.1222396949439958e-04  1.5659732420678452e-05 3.0353325529666705e-05 8.3009785186219772e-05  -1.2122901719518695e-05 4.6479137705771922e-05 -9.4229461263725317e-05  1.5121780032061215e-05 2.2209986044783693e-05 1.7583578105709162e-04  6.0542170536548801e-05 -2.1653616157083408e-05 6.3314140520177387e-05  4.2662793531599838e-05 -3.1888665198188331e-05 6.5083455088017333e-05  3.2252034874250205e-05 -3.3728894506986467e-05 1.2391896770501162e-04  2.1096035337585708e-05 -3.9627138050588470e-05 7.2940357644682183e-05  1.2006140341955383e-05 -4.0249533842143106e-05 1.4294137652304218e-04  3.2085207703133328e-06 -4.2301075475915022e-05 7.1446914596542279e-05  -1.0540170168368841e-05 -4.0177529263200051e-05 1.0934119533453598e-04  -1.9304359163733243e-05 -4.1612604267555217e-05 3.8866990285443339e-05  -3.5428232922647106e-05 -3.7233478275375041e-05 9.0303429241940920e-05  -3.4764968738993212e-06 -4.0970247706475898e-05 -1.0359332480087316e-05  -2.2909372977885624e-05 3.4850447982435463e-05 -1.2074651045161126e-04  -3.8208940849131890e-05 3.0818489354170611e-05 -5.1394772815431234e-05  -3.8700058790840230e-05 -3.8232551905407324e-05 2.3475719311981664e-05  -5.0750292166896057e-05 -2.9756521465346924e-05 6.3104244421294169e-05  -6.1771329425886596e-05 -2.3358399427294505e-05 -1.3871830642127458e-05  -6.2175802192425368e-05 -2.2862077966642056e-05 3.5786751418980131e-05  -6.7780732836238502e-05 -1.7394564528714611e-05 -4.0735329117084086e-05  -6.4786603356180094e-05 -1.2161700328198005e-05 8.5759525251953697e-05  -5.0943656890567904e-05 -2.4231190966655458e-05 -7.8000085513584927e-05  -7.3359693592001758e-05 -5.6949165673240172e-06 6.5065459634466475e-05  -6.9621937246779525e-05 -1.0624137167325523e-05 -8.2208251532676547e-05  -5.7187428907100577e-05 -2.6924014944750055e-06 1.2431690690102413e-04  -6.6472939322438228e-05 4.7541311758429113e-06 8.6638982687249207e-05  -4.0602608397608133e-05 -2.7693660708410072e-05 -1.5740746914708946e-04  -7.7140848912906635e-06 1.9498285359929763e-05 -2.0894186793555584e-04  -4.5081297481996899e-05 3.1118412621719374e-05 -1.0540852885953495e-04  -4.7395585286133370e-05 9.7507516865415566e-06 1.7508631944881457e-04  -5.7401784064402462e-05 1.6999696099945353e-05 1.2221540710494072e-04  -6.7003510977660082e-05 -2.2117963137360316e-06 -5.8920311824277084e-05  -2.6010668226497231e-05 -2.4480214653334495e-05 1.2212670361076288e-04  -5.0853462096346752e-05 -1.0879636363296356e-05 -1.3861499943198255e-04  1.5214240532900676e-05 -2.8563907814898596e-05 -1.6071250928850769e-04  -6.5014511712835501e-05 1.5934572843995384e-05 3.4417081379217166e-05  -4.0308296143078323e-05 -1.6398004294222336e-06 1.9531244574850536e-04  -3.2183354733647940e-05 -1.5052734570373584e-05 -1.8862157412543034e-04  -4.8408316194418035e-05 1.4413819930096474e-05 1.3000665787573189e-04  -4.5604359761207308e-05 2.6373326155952865e-05 1.2120678057305184e-04  -3.2038958144274066e-05 -3.4548535927782088e-05 -1.0779169234616243e-04  -1.7696207465457989e-05 3.8752656881613086e-05 -1.9564605556630777e-05  -3.2437374753309102e-05 -3.3501548200533641e-06 -2.1464947375624444e-04  -4.9277338536288455e-05 3.4378692581198884e-06 -1.6918539234613147e-04  -2.6629813284401791e-05 2.9217607649757251e-05 1.5023091149093587e-04  -2.4556530960483256e-05 3.7043825034560036e-05 9.4510939829510197e-05  -2.2911267822529024e-05 1.8479441566003150e-05 2.1428509471074943e-04  3.7013640784157011e-05 -3.5019230271463428e-05 -1.0473826350050307e-05  -5.0329807281164787e-05 2.9674150741898711e-05 -5.2636563807657132e-05  -6.4613711982885354e-05 1.6158909432101793e-05 -6.8520110697404058e-05  1.1580872419446153e-05 -3.8335626231953525e-05 -1.1764661171469350e-04  -6.0598078024143034e-06 -3.6067530410992910e-05 -1.5216097598210493e-04  -2.1170979267306255e-06 -1.9886023191819961e-05 -1.6269598563794802e-04  -2.0079535082424111e-05 -1.1010817720855583e-05 -2.1037396816328842e-04  -3.3066561821652973e-05 2.2169645895799058e-05 -1.6463368551556165e-04  1.6392647943741685e-05 -2.9041773106453298e-05 1.7795343136436267e-04  -4.0233901656214155e-05 3.2898757462801069e-05 6.6374612770055575e-05  -4.4264645168842587e-06 -2.0941719139087664e-05 1.7510887361763021e-04  -1.1126718469172983e-05 -1.4409899886632398e-05 2.4337645737843036e-04  -7.6569238609631062e-06 -4.4321668403369712e-05 -7.9395583370231700e-05  -1.6354467977086647e-05 2.6391263968580333e-06 -2.4066043856289554e-04  -4.7234143982998110e-06 3.7894947613596783e-05 1.4159162613239861e-04  -3.4008611243440679e-05 8.0009434228773882e-06 -1.7910430671583079e-04  -5.0357131844745183e-05 1.4901751005250064e-05 -1.5723147914552623e-04  -6.8500849851469212e-05 7.7825774652269503e-06 -8.6829109779821767e-05  -8.1692242894272664e-05 9.4044513525297582e-06 -3.4063298209484798e-05  -7.3250788348701835e-05 3.0273786813430717e-06 2.7371462003035973e-05  -2.8199417952080980e-05 -1.7954164161799088e-05 1.9328637443928994e-04  -4.1670565360842464e-05 -2.5993124561190481e-05 1.5400921545652310e-04  -8.1091809709581929e-06 4.3478156516838633e-05 9.6131702674339415e-05  -1.0787511550351071e-06 -2.5450986103540859e-05 1.2837708305359495e-04  2.8221979631792305e-05 -4.1165743451644434e-05 -5.7118931398436293e-05  6.3563771807199451e-05 1.0296631708647839e-05 -8.2271258406558167e-05  5.5905967907795557e-06 1.1450573366548520e-05 2.0743032683996193e-04  1.2455403565257260e-05 4.4474466448980604e-05 4.2549089695086274e-05  -2.0437887855531280e-05 -2.6134718755287578e-05 -1.7011613550481347e-04  6.6304457645770015e-05 -1.1083753896389120e-05 4.4446412659473352e-05  4.3145035352939822e-05 -3.4220132441731221e-05 -6.3197752936249927e-05  5.5276857071910138e-05 -3.0955172459939861e-05 -2.2146681244858926e-05  -5.3678387119015531e-05 2.5910081034877980e-05 5.5886940693360792e-05  -2.0175288542196120e-05 -4.7140374575289276e-05 -1.5143697033823432e-05  -4.0382868426362072e-05 -3.0986840813369848e-05 -3.7888816097079929e-05  -2.6003901392104526e-06 2.7363261649779072e-05 1.8715247034147863e-04  -1.8383083680534256e-05 6.1928554920408011e-06 2.4563784226532502e-04  -4.0641681061506324e-05 8.9531013232544425e-06 1.6268240141044667e-04  1.5951771780741831e-05 -4.6305864286387337e-05 1.4787131443905771e-05  -1.3581760715285952e-06 4.2923478490965148e-05 -3.1054092120220026e-05  3.8303442648010737e-05 2.7855954430698838e-05 -1.2927217776768354e-04  6.6659893659809876e-05 -1.2488829399827966e-05 -2.9798825700126299e-05  3.3477798875652186e-05 1.0358882326088700e-05 -1.8831618918003622e-04  -5.9282346830782653e-05 2.3971807868747279e-05 -4.0932604549170404e-06  -1.5715898737837842e-05 2.2969522831088370e-05 -1.4481211583485093e-04  3.5315634051082454e-05 -2.2237014886424569e-05 1.7393481548664774e-04  -5.9653215935935033e-05 -2.3220257162193016e-06 -1.2726578972999705e-04  1.5469713451671125e-05 3.2939988885910994e-05 1.4381385448520770e-04  1.9179539986788489e-05 -1.9049173131396006e-05 -1.9653782420308468e-04  1.0573096688624816e-05 -4.0252753702722148e-05 -5.0126962626606140e-05  -4.3939533467824386e-05 -3.0274650605810896e-05 1.3692147849170467e-04  5.5798574569379796e-05 2.5614180480052035e-05 4.8377921245462214e-05  -4.1217211763171143e-06 -1.2102167526544270e-05 -2.1932224349134149e-04  5.4972680797614899e-05 1.9116532441141671e-05 -1.1762450353559683e-04  -7.1723254778459022e-05 -1.0670672542457764e-05 9.5425339771615203e-06  -3.8441282218502169e-05 3.8626026545524499e-05 -3.5872870313217035e-06  -2.6416498949131054e-05 2.8271031191953979e-05 3.7364256544778331e-05  6.7271322085455271e-05 -2.0078275333813694e-05 -1.3340354205173978e-05  -1.7140774202033749e-05 -1.4746029459817694e-05 -1.9370451385128466e-04  2.3044357745001627e-05 -2.2483389816167943e-05 2.0731369706178304e-04  -1.8702497364835577e-05 1.1129796959725233e-06 2.3235402955729649e-04  -2.4572493141196215e-05 -3.9514004951202386e-05 -6.2759698651964799e-05  5.5936341249620373e-05 2.3275496191399800e-05 -6.7024564642148983e-05  -3.9265529805614142e-06 4.0606411844777829e-05 6.1405452441516250e-06  -4.2036427296606269e-05 -1.3339547922182015e-05 2.0504253595251084e-04  -3.1853121727715874e-05 -8.4602375897866054e-06 2.1823818951972860e-04  -1.7741702726960381e-05 -3.8999434298780644e-05 -1.2098404885359515e-04  -4.8935171504078563e-05 3.4214665199073770e-05 5.2754215388019906e-06  1.1551595734519630e-06 5.2511983539093162e-06 -8.4729769530910380e-06  -1.8408843628488818e-05 2.0706679367222805e-05 -1.6304472055481210e-05  2.5228390973412513e-05 -7.2020159419479077e-06 -7.6253269784552691e-06  -8.4767133914929178e-06 -2.4114925896226266e-05 -8.6712469921451814e-05  2.0513448635833068e-05 1.6666987305842299e-05 -6.6013617166653632e-05  -1.6186718679667553e-05 -4.3449530598382348e-06 1.4969444768202358e-04  -3.0358276795352341e-05 -4.9018345948758805e-06 -8.8331277662717514e-06  5.0287077249895432e-06 -2.9170413699407488e-05 8.5481920234313071e-05  1.9333594065474293e-05 1.4258986971530236e-05 8.3722390608519660e-05  -1.5522187523441008e-05 4.5602296302683706e-06 -1.4113608542420003e-04  1.2962180885397348e-05 -2.2248382874062036e-05 -1.4408791459019562e-04  -4.7500375244696074e-06 1.9539944519727805e-05 1.0179251497026304e-04  5.1989232956763751e-06 2.6858561041341531e-05 6.6796695141727514e-06  1.0752955057941181e-05 -1.0641077724631876e-05 1.8993429445943129e-04  -3.9577932763549672e-06 2.0756667510188680e-05 -1.1867490540887293e-04  1.2013920610600193e-05 7.0168819787466851e-06 -1.8206723887643648e-04  -2.1810555376025452e-05 -2.1876861473175380e-05 5.5489378032355016e-05  -3.0019191340971901e-05 1.3361703335807157e-05 6.3960593551736601e-05  3.2253989259369115e-05 -4.2409437520715506e-07 -1.1974767650857516e-04  -4.3351805303290587e-06 -1.6301969852230649e-05 -1.8892310126169862e-04  5.1756623755584216e-06 -3.7168974710352274e-05 -7.1154019928502157e-05  2.4960623117157609e-05 -2.3035119252055969e-05 1.1399636949459597e-04  2.7929970372674192e-05 -2.9345619629579140e-05 -2.3415334045972137e-07  -2.8524900011585983e-05 -1.2157102974342295e-05 -1.3125057583967704e-04  3.1910707646917353e-05 1.2294603243436521e-05 1.3110479649988999e-05  -8.6505365267009089e-06 -2.4423512894965370e-05 1.6641561840604631e-04  -3.4066434659346461e-05 1.2530436824606547e-05 -7.8941311465947599e-05  3.5267178681382962e-05 -3.4113990184406271e-06 1.0541248328463493e-04  2.2761324392445713e-05 3.1141414128411894e-05 2.2701980129144893e-05  -3.2224101988219636e-05 -1.0106496766063160e-05 1.1230076583439868e-04  7.1193529863433460e-06 9.9609672488824235e-06 1.7125758629918776e-04  -1.1114780127200897e-05 3.5102636233965059e-05 7.0533015650692233e-05  -1.1127022628125899e-05 3.7995100814069039e-05 -6.8716688774652179e-05  1.3711870584295802e-05 3.2794696941964804e-05 -9.5873852182556653e-05  -2.9486026455373359e-05 -2.8538628175726761e-05 -2.0505797914245264e-05  1.1127490426840103e-05 3.1550786789625782e-05 1.2465139633768032e-04  -6.5335868721638943e-06 -3.7809668897576220e-05 1.7778068246338690e-05  -2.0014716106311963e-05 1.3681979478762712e-05 1.7908709923279971e-04  3.3451089011505789e-05 -1.9586061563808950e-05 -8.5719133560154429e-05  3.2278999353366205e-06 -1.4840759082301633e-05 -7.1954882350241803e-05  1.3206706906557142e-05 -7.3122467526173043e-06 9.2298774248756812e-05  </DataArray> 
</PointData> 
</Piece>
</UnstructuredGrid>
</VTKFile>