<?xml version="1.0"?>
<VTKFile type="UnstructuredGrid"  version="0.1"  >
<UnstructuredGrid>
<Piece  NumberOfPoints="201" NumberOfCells="657">
<Points>
<DataArray  type="Float64"  NumberOfComponents="3"  format="ascii">0.1913111449870384 -0.1592853512660535 5598.371930585285  -0.02168197572104104 0.02826224311804092 -5598.372142414923  1796.830268885775 0.0224289043015645 -5324.308066346664  3417.583548026554 -0.1617707228040274 -4529.397509293847  4703.946737190343 -0.02514246579924199 -3290.468214528565  5530.12974058386 -0.03206994478151524 -1729.979952220715  5815.02178391414 0.05367017954999904 0.3415940489169385  5530.2595560222 -0.1052757138528261 1730.337000228643  4704.34188220014 0.01093521798895882 3290.754267758797  3418.035854818057 0.04508120334948867 4529.125699623301  1796.758479832328 0.07506178309111092 5324.198386705258  2277.708338850522 -284.0157829839453 -4869.865171254859  2262.564683101972 220.7050201658925 4990.011602188282  5537.332217206369 -253.0763741394921 -830.2391022439607  3987.712709932779 -275.8598885586852 3734.829009163099  5036.617657179369 255.9324369730417 2355.307947129142  5015.63832296798 255.9310495088422 -2395.908484645734  2542.946859268158 254.2404912648013 -4805.328893220139  876.3002302477097 -254.2960464634099 5326.477071455572  3961.017368615991 -254.2565323079133 -3813.384726882758  2760.756234645696 -496.2894833898734 -3945.995636946165  4102.032920640275 -486.4912978597928 -2717.58993986373  2818.144800203641 -690.1319512207878 -2614.838446333461  3969.28647135663 -649.0883278783796 -1287.073156906625  2495.860863856641 -815.9200538374253 -1095.479644073425  3550.028628260811 -735.8273000087368 276.9785631727793  1868.070380262089 -869.0168726798039 500.2928998463278  2705.654081320263 -759.9552026897546 1895.527675291895  975.6558723805302 -846.9633985498106 2017.822904615806  1729.940098440544 -696.7667444264601 3327.526401644268  -67.0766709489923 -746.4798783078198 3336.093139521011  4141.658518156969 -601.5974426056272 1597.147359850092  3961.4091738087 254.3326798825979 3813.509830709409  4019.210295387253 489.7860583943591 2810.986762348468  4866.354794842396 469.7799963447872 1272.14402672922  645.899171161903 -559.2731495673489 4453.857409065673  2365.369526076384 -491.378681664879 4197.436936182233  2760.102215573974 468.2633342898922 4067.281850612268  2665.106447238575 679.7113136564474 2854.296911573781  5548.068190548604 -246.9169752171523 830.193462771259  4899.232149569386 -507.1833310895252 96.35308070751704  5048.046155392902 -256.1961871937744 -2331.77799882823  876.4603295459407 254.1760888656405 -5326.616359572899  3921.384884886822 247.8359640765523 -3865.600515785846  3987.87410513598 487.2361892100247 -2867.058434646423  1211.225161954568 -822.8728953319738 -2271.734306516412  -847.9154186063852 -856.5494204668992 1910.441243940653  1178.190031531714 -508.4435893394974 -4571.393204224981  4833.434303797389 475.3325271632982 -1314.47973323699  3621.498187329262 681.0859841620173 -1584.995651468224  2570.772671090951 663.3906524342533 -3070.014466105316  2033.680201889664 819.197496197736 -1711.644160510652  897.7434083288399 771.3139763593942 -2990.82135456115  263.1604973693207 883.4202374068389 -1554.659791244898  -920.7772688726333 792.3389028529107 -2761.739417936974  -1520.941320537995 868.5295890393818 -1172.305386635274  -2675.936692527526 747.0463732627887 -2115.752625823901  -292.6534995641654 916.6879170255498 104.0318834506687  -1864.70441152698 -718.7566873688564 3075.119197627307  -2578.212880947747 -791.9572366296674 1523.666799030516  -3143.080653386143 775.3489320356189 -571.9115868246616  -4143.616483975195 611.3240624848904 -1448.960017404854  -4413.666116996149 610.1444690355632 129.5579008933288  -5168.850892498592 405.2267429299932 -904.342389016196  -5238.890381790136 384.7771992485516 843.5116931273311  -4591.252417743252 384.3316764352492 -2574.761755904385  -4242.541957776443 565.5741093136509 1817.903316987656  -5462.639465672407 168.6001195377307 -1640.95754127135  -4837.930313929648 316.8322168001044 2478.166175728552  -4649.131484727226 108.2470589441028 -3301.31018160394  -5220.850011344205 -122.5463765984924 -2356.319105841025  -3602.835373350173 475.4183327521613 3366.957943449225  -804.1354151209354 -389.3666475639015 5041.32111554406  -3513.81889975784 -617.5007520141395 2506.013174536743  -4178.295060767031 -165.8665441533407 -3768.858676701936  -4518.54804406796 -387.9881122839852 -2672.204969314584  -5587.172148986648 107.1598823840152 1415.867095503897  -1949.924141792194 622.1553222388596 -3738.722906343104  -3979.17333099394 204.0191518424695 3900.491875334965  1254.342310153795 628.6496256772729 3968.199948694579  -5387.089132700932 -318.2510076026393 -949.7443724000586  -3384.870822330175 66.36299473750552 -4535.93659636555  -2639.425223965276 362.6686846647503 4502.526112503437  -3256.785578092711 -416.9653510558433 -3924.686532946492  -3416.085305357629 -616.6880814098431 -2635.483195415657  -2880.888929275545 692.1825674014384 2529.405074573629  -1475.101225744742 -888.1316346591798 362.1818293017556  -2777.098008555415 61.36690732593586 4905.65187123323  -4103.79870554775 -88.61990338143072 3931.870484034131  -1971.78655173872 -618.16771443652 -3751.956722118352  -1982.066799579366 -782.2365518715226 -2327.532729994191  -1696.47414372839 -394.3064759878437 -4818.243397879743  2963.629618042963 796.7911429415233 -158.6952654662511  -3978.726037025018 -661.1329555623159 995.4289432209875  -4781.154799350536 -450.3029686172451 1739.057781921725  1046.769224542115 802.3339079333634 2609.090657036609  -377.6294298197518 726.1234961306129 3480.543054231478  -130.5445779784073 551.715871666202 4529.433202418707  -1576.01768436917 234.7232019983232 5207.212954277385  -2631.870864525864 -506.9416709366899 3978.426456024153  1375.044415987494 614.5930500739028 -4010.342932264876  -3273.587999063192 -741.3148955552508 -1226.673867988669  -431.523259263648 473.8583080330803 -4820.232089636753  -955.1168003446568 204.1290582117676 -5389.123680099861  -650.9212416031962 860.6645555683748 1910.366979733387  -1229.104946698165 -144.7305700427712 5404.844375697499  -422.153288603121 -759.4875064856857 -3196.776085580371  -2655.327353703832 -232.274012338448 4788.021724770054  -4096.603535722707 -373.213081125914 3302.074460595222  -5095.468165604207 -180.1030573448165 2479.107104271036  -5576.035051737364 -233.5308455517195 785.8025460672006  -5789.653577004425 -30.39927493287583 -486.3156739612779  -2236.107682252342 403.3956729290275 -4581.605490927986  -3392.470514451195 445.9316040943642 -3698.202504078144  -497.6124773241103 -866.9716855323773 -1841.350611652238  -198.5110941257241 687.4625607734295 -3780.713564590506  2331.211752059415 812.6833965245481 1468.622379496611  5014.021737684527 -244.8453578785571 2440.333977845511  290.8218654606231 -266.579847222819 -5364.463655355817  925.2121183731721 -896.7008299842004 -867.0658018212016  -1775.440470421574 596.5348572768455 3966.053028009777  5560.801817262271 237.3785808410884 -847.9339822543712  3728.714269385912 675.0375700782364 1444.629170427998  4395.719139207165 613.6980777938878 -63.99764093063753  -4450.174146291115 -556.1655334224076 -1418.668540388246  -1938.540197654997 866.3703859866988 438.1189121143104  -3246.83638262705 752.0596742315961 1028.216705486007  -316.5088651475863 -571.50487536166 -4430.136629940935  -1355.853785968367 -105.252629793993 -5408.851952632931  -2857.185506596346 -168.906449873168 -4773.425754631169  1352.263463001666 893.4973969054398 -287.5996966006975  158.45131718446 -912.3880176979154 625.8509651124258  3219.545519076958 -590.3602646263095 3052.880175700807  5570.715034877933 240.2424014798313 752.753856496869  2544.647490226949 -252.313375509754 4807.905198276775  -4927.371864046267 -499.8399016152985 138.4909692257373  -1043.866695572013 -615.8088963466665 4096.948648277214  2837.233300702021 454.2775844632738 -4075.377680765509  -4981.89087688737 75.29275096603087 2852.583148989481  1310.268689398124 -692.431822154594 -3531.405934368961  1426.213552404377 450.5309205816606 4721.93363397879  833.8161522241545 889.5858570068768 1183.221693463994  -3626.337682978011 585.7261690328342 -2633.925613314063  4870.570388602006 -452.6796690068284 -1464.977426655944  -89.03377552204327 244.8425253971162 5407.086675060099  4411.198879894286 -440.4783990809753 2545.709974921085  -5647.681588255175 224.7943751545393 -127.2163476422233  -3021.019337041143 -792.3692443973914 54.19178688150097  -1846.798639508999 -861.0532224653529 -932.4629835749215  5223.476606198532 415.2000838608845 -38.89906949015744  -1300.064405056281 462.2866693003691 4715.780112557608  1617.435817573031 420.146172122169 -4765.238527774301  -1960.83517089291 69.28764981225402 -5255.079503326088  -2137.404846289093 808.8567218656567 1786.99845678877  4952.391639673177 -421.3642815213848 1541.5843660443  -398.8512703499373 -911.7786116362132 -565.4468099100092  -3730.910075365976 245.0772446728521 -4043.541024985323  -2549.584099151632 208.3108629018289 -4879.574902184153  -1633.247447652442 746.4869607775844 2945.845125134574  -4102.468178644332 -660.8759843249608 -314.115258646316  -0.1474547826238372 0.005441427562815875 0.09777405214037736  -1866.593544626217 -360.218819608831 156.0553495929981  2820.076723437464 140.9994672727657 -25.70770202090245  -1124.68900331426 378.3791595894587 1240.992667705352  2102.942607789444 -268.9267997624013 1128.451948101129  -1369.430534297192 39.47322877386234 -2505.743380994731  -2900.236083393256 71.7981385143505 2.103140116435113  554.7173106389062 427.6080467390116 -1077.902645944871  1959.428433913088 -211.6829813779672 -1686.348450629871  -1523.762282448903 -40.28902668849807 2430.339925759286  1461.633466206132 319.388815439161 1960.37060666741  -539.9306075922376 -364.1509236504815 -2129.994732713046  483.4346228616123 -523.5498588469887 10.50473184499188  1162.981980671392 140.0947172879665 -2788.976
[...]
<PointData  Vectors="Centrifugal"> 
<DataArray  type="Float64"  Name="Centrifugal"  NumberOfComponents="3" format="ascii">4.5951927875953069e-09 0.0000000000000000e+00 1.3534709948796920e-04  -5.1927866984217783e-10 0.0000000000000000e+00 -1.3534710493944533e-04  4.3439698716306048e-05 0.0000000000000000e+00 -1.2872129784959415e-04  8.2622638465290954e-05 0.0000000000000000e+00 -1.0950337415455308e-04  1.1372142193097303e-04 0.0000000000000000e+00 -7.9550891062194702e-05  1.3369496216709959e-04 0.0000000000000000e+00 -4.1824262758884486e-05  1.4058238997798102e-04 0.0000000000000000e+00 8.2033497087044312e-09  1.3369808054190324e-04 0.0000000000000000e+00 4.1832836386467817e-05  1.1373090950546998e-04 0.0000000000000000e+00 7.9557759796353652e-05  8.2633498829836236e-05 0.0000000000000000e+00 1.0949684590609239e-04  4.3437975330623737e-05 0.0000000000000000e+00 1.2871866410646228e-04  5.5065075536653730e-05 0.0000000000000000e+00 -1.1773418858796311e-04  5.4699017129928280e-05 0.0000000000000000e+00 1.2063899629719113e-04  1.3386867284761469e-04 0.0000000000000000e+00 -2.0071936101049830e-05  9.6405453364589559e-05 0.0000000000000000e+00 9.0293484115780000e-05  1.2176354720545350e-04 0.0000000000000000e+00 5.6942075144145658e-05  1.2125636507874655e-04 0.0000000000000000e+00 -5.7923714851866193e-05  6.1477450926752312e-05 0.0000000000000000e+00 -1.1617402601492717e-04  2.1185138339176331e-05 0.0000000000000000e+00 1.2877339100828469e-04  9.5760215732089708e-05 0.0000000000000000e+00 -9.2192725624731729e-05  6.6742535374143000e-05 0.0000000000000000e+00 -9.5397921073112117e-05  9.9168497756199658e-05 0.0000000000000000e+00 -6.5700156975020491e-05  6.8129045452842551e-05 0.0000000000000000e+00 -6.3215301369863022e-05  9.5958295795064473e-05 0.0000000000000000e+00 -3.1115876864240529e-05  6.0337083466144927e-05 0.0000000000000000e+00 -2.6483613391038612e-05  8.5822056430484084e-05 0.0000000000000000e+00 6.6960776740694663e-06  4.5160111590369840e-05 0.0000000000000000e+00 1.2094706383098641e-05  6.5409125371562900e-05 0.0000000000000000e+00 4.5825254008968741e-05  2.3586293790993582e-05 0.0000000000000000e+00 4.8781445017203303e-05  4.1821514439656338e-05 0.0000000000000000e+00 8.0444935230312780e-05  -1.6216101005584896e-06 0.0000000000000000e+00 8.0651693141637481e-05  1.0012574213508888e-04 0.0000000000000000e+00 3.8612177297249367e-05  9.5769622424342655e-05 0.0000000000000000e+00 9.2195729925726694e-05  9.7166141867581618e-05 0.0000000000000000e+00 6.7958067465596195e-05  1.1764639285923500e-04 0.0000000000000000e+00 3.0755217199573559e-05  1.5614889065767770e-05 0.0000000000000000e+00 1.0767556711456425e-04  5.7183798877972805e-05 0.0000000000000000e+00 1.0147672673627657e-04  6.6726780914500299e-05 0.0000000000000000e+00 9.8330244677166456e-05  6.4429324359499603e-05 0.0000000000000000e+00 6.9004357967388023e-05  1.3412820120464180e-04 0.0000000000000000e+00 2.0070821586822930e-05  1.1844094448211337e-04 0.0000000000000000e+00 2.3294051287626588e-06  1.2203979617047916e-04 0.0000000000000000e+00 -5.6373280236376040e-05  2.1188983383333647e-05 0.0000000000000000e+00 -1.2877673654576244e-04  9.4802106706443531e-05 0.0000000000000000e+00 -9.3455104079913747e-05  9.6408669837004822e-05 0.0000000000000000e+00 -6.9313705000093127e-05  2.9281196508005641e-05 0.0000000000000000e+00 -5.4919969869421666e-05  -2.0498149215340749e-05 0.0000000000000000e+00 4.6185431158982377e-05  2.8483212418337800e-05 0.0000000000000000e+00 -1.1051734416496387e-04  1.1685047168409233e-04 0.0000000000000000e+00 -3.1778751536346243e-05  8.7550227224667210e-05 0.0000000000000000e+00 -3.8318268865052572e-05  6.2148899225548016e-05 0.0000000000000000e+00 -7.4219576970190282e-05  4.9163932460319153e-05 0.0000000000000000e+00 -4.1379614931212509e-05  2.1702936761845414e-05 0.0000000000000000e+00 -7.2304480071169955e-05  6.3618440252435378e-06 0.0000000000000000e+00 -3.7584224499535537e-05  -2.2259701525182005e-05 0.0000000000000000e+00 -6.6766169212648007e-05  -3.6768351800080682e-05 0.0000000000000000e+00 -2.8340756835911755e-05  -6.4690796972250190e-05 0.0000000000000000e+00 -5.1149340909344653e-05  -7.0748002206583919e-06 0.0000000000000000e+00 2.5149589281697146e-06  -4.5079378909944321e-05 0.0000000000000000e+00 7.4342694303253508e-05  -6.2328094659930695e-05 0.0000000000000000e+00 3.6835271024921556e-05  -7.5983817083484457e-05 0.0000000000000000e+00 -1.3826212924949580e-05  -1.0017305885917484e-04 0.0000000000000000e+00 -3.5029632468314184e-05  -1.0670160090692590e-04 0.0000000000000000e+00 3.1321716049362189e-06  -1.2495977651761367e-04 0.0000000000000000e+00 -2.1863336770741387e-05  -1.2665314838498814e-04 0.0000000000000000e+00 2.0392744538091553e-05  -1.1099612407007648e-04 0.0000000000000000e+00 -6.2247377668756757e-05  -1.0256491759017141e-04 0.0000000000000000e+00 4.3949234290283479e-05  -1.3206317968954588e-04 0.0000000000000000e+00 -3.9671920803532679e-05  -1.1695999597167453e-04 0.0000000000000000e+00 5.9912219507005310e-05  -1.1239616814486255e-04 0.0000000000000000e+00 -7.9812873786982047e-05  -1.2621785628751217e-04 0.0000000000000000e+00 -5.6966653011630551e-05  -8.7100196778449183e-05 0.0000000000000000e+00 8.1399200146299813e-05  -1.9440412388682021e-05 0.0000000000000000e+00 1.2187893826106711e-04  -8.4947471845050822e-05 0.0000000000000000e+00 6.0584624870217244e-05  -1.0101326007261584e-04 0.0000000000000000e+00 -9.1116315184234330e-05  -1.0923841056137713e-04 0.0000000000000000e+00 -6.4603164235299031e-05  -1.3507398254082860e-04 0.0000000000000000e+00 3.4230165165180716e-05  -4.7139874884653537e-05 0.0000000000000000e+00 -9.0386240566002298e-05  -9.6199265607405202e-05 0.0000000000000000e+00 9.4298698235850985e-05  3.0324036416643114e-05 0.0000000000000000e+00 9.5934035399411233e-05  -1.3023622655303384e-04 0.0000000000000000e+00 -2.2961020622895738e-05  -8.1831717842888779e-05 0.0000000000000000e+00 -1.0966137655882760e-04  -6.3809658808518723e-05 0.0000000000000000e+00 1.0885307405057551e-04  -7.8734499779657013e-05 0.0000000000000000e+00 -9.4883013595643985e-05  -8.2584699620819862e-05 0.0000000000000000e+00 -6.3714657947686439e-05  -6.9645885216493221e-05 0.0000000000000000e+00 6.1149882245289797e-05  -3.5660099003495913e-05 0.0000000000000000e+00 8.7558435795930847e-06  -6.7138396865891258e-05 0.0000000000000000e+00 1.1859970990031213e-04  -9.9212309169608356e-05 0.0000000000000000e+00 9.5057451443229704e-05  -4.7668422057751451e-05 0.0000000000000000e+00 -9.0706176479839133e-05  -4.7916343143665839e-05 0.0000000000000000e+00 -5.6269111907528138e-05  -4.1013097048768349e-05 0.0000000000000000e+00 -1.1648573122499735e-04  7.1645435873549326e-05 0.0000000000000000e+00 -3.8365186319199379e-06  -9.6186398162978557e-05 0.0000000000000000e+00 2.4065159277227577e-05  -1.1558679624004051e-04 0.0000000000000000e+00 4.2043319933982434e-05  2.5305536407120696e-05 0.0000000000000000e+00 6.3075778250969814e-05  -9.1291906157439720e-06 0.0000000000000000e+00 8.4143945211109466e-05  -3.1559594314567967e-06 0.0000000000000000e+00 1.0950274666971908e-04  -3.8101252672162808e-05 0.0000000000000000e+00 1.2589009802428349e-04  -6.3626620735831324e-05 0.0000000000000000e+00 9.6181862886157241e-05  3.3242075566844900e-05 0.0000000000000000e+00 -9.6952914838867139e-05  -7.9139075737145439e-05 0.0000000000000000e+00 -2.9655468442062094e-05  -1.0432242120081296e-05 0.0000000000000000e+00 -1.1653349587406196e-04  -2.3090496432316645e-05 0.0000000000000000e+00 -1.3028803570770689e-04  -1.5735867387402481e-05 0.0000000000000000e+00 4.6183600327399799e-05  -2.9714425185282897e-05 0.0000000000000000e+00 1.3066824434283705e-04  -1.0205548716655126e-05 0.0000000000000000e+00 -7.7283580041365930e-05  -6.4194359893831901e-05 0.0000000000000000e+00 1.1575562543950698e-04  -9.9037712079037452e-05 0.0000000000000000e+00 7.9830957230752413e-05  -1.2318656374349712e-04 0.0000000000000000e+00 5.9935142425149834e-05  -1.3480447415253270e-04 0.0000000000000000e+00 1.8997638836359763e-05  -1.3996915405237206e-04 0.0000000000000000e+00 -1.1757240022406870e-05  -5.4059095208257285e-05 0.0000000000000000e+00 -1.1076469010961304e-04  -8.2014626462578770e-05 0.0000000000000000e+00 -8.9407421455038220e-05  -1.2029640655192923e-05 0.0000000000000000e+00 -4.4515113285521443e-05  -4.7990374016795336e-06 0.0000000000000000e+00 -9.1401052053195943e-05  5.6356737347586295e-05 0.0000000000000000e+00 3.5504478685191628e-05  1.2121727300230262e-04 0.0000000000000000e+00 5.8997635947131433e-05  7.0307892617469818e-06 0.0000000000000000e+00 -1.2969169633903651e-04  2.2366695751467577e-05 0.0000000000000000e+00 -2.0961475960026774e-05  -4.2921809916438059e-05 0.0000000000000000e+00 9.5882272513561414e-05  1.3443609813016885e-04 0.0000000000000000e+00 -2.0499730260679839e-05  9.0142219692982737e-05 0.0000000000000000e+00 3.4924798079967319e-05  1.0626764553906123e-04 0.0000000000000000e+00 -1.5472146674885920e-06  -1.0758451890518617e-04 0.0000000000000000e+00 -3.4297414767062635e-05  -4.6863693484297834e-05 0.0000000000000000e+00 1.0591629525840926e-05  -7.8492294969601526e-05 0.0000000000000000e+00 2.4857611393348996e-05  -7.6516498621795790e-06 0.0000000000000000e+00 -1.0710203576439442e-04  -3.2778623073681242e-05 0.0000000000000000e+00 -1.3076514621717340e-04  -6.9074457787408780e-05 0.0000000000000000e+00 -1.1540285896672024e-04  3.2690514569551913e-05 0.0000000000000000e+00 -6.9527768690990177e-06  3.8305083479945081e-06 0.0000000000000000e+00 1.5130020530312070e-05  7.7833487097672661e-05 0.0000000000000000e+00 7.3805705445187673e-05  1.3467574448211298e-04 0.0000000000000000e+00 1.8198617688922185e-05  6.1518521043986185e-05 0.0000000000000000e+00 1.1623633220183718e-04  -1.1912135716793023e-04 0.0000000000000000e+00 3.3481369059610657e-06  -2.5235753160986663e-05 0.0000000000000000e+00 9.9046718121486335e-05  6.8591540513115692e-05 0.0000000000000000e+00 -9.8526015808652007e-05  -1.2044089961524779e-04 0.0000000000000000e+00 6.8964427358969785e-05  3.1675918098338250e-05 0.0000000000000000e+00 -8.5373856722729120e-05  3.4479453696067599e-05 0.0000000000000000e+00 1.1415714823040890e-04  2.0157233658752625e-05 0.0000000000000000e+00 2.8604592887284395e-05  -8.7667790564377335e-05 0.0000000000000000e+00 -6.3677129095211619e-05  1.1774839232832528e-04 0.0000000000000000e+00 -3.5417208069519747e-05  -2.1524484064564995e-06 0.0000000000000000e+00 1.3072223194607527e-04  1.0664291464422794e-04 0.0000000000000000e+00 6.1544889084128374e-05  -1.3653654071619771e-04 0.0000000000000000e+00 -3.0756198096503189e-06  -7.3032870518411778e-05 0.0000000000000000e+00 1.3101163649655706e-06  -4.4645882696761174e-05 0.0000000000000000e+00 -2.2542549915219517e-05  1.2628027887144288e-04 0.0000000000000000e+00 -9.4043890456641063e-07  -3.1429661580507263e-05 0.0000000000000000e+00 1.1400832941330648e-04  3.9102315617278975e-05 0.0000000000000000e+00 -1.1520419327354138e-04  -4.7404557528256630e-05 0.0000000000000000e+00 -1.2704752341049274e-04  -5.1671481418329098e-05 0.0000000000000000e+00 4.3201317143383781e-05  1.1972664282780443e-04 0.0000000000000000e+00 3.7269246899809359e-05  -9.6420707678197237e-06 0.0000000000000000e+00 -1.3669756029770156e-05  -9.0197212113171852e-05 0.0000000000000000e+00 -9.7756931556138290e-05  -6.1637915713002651e-05 0.0000000000000000e+00 -1.1796903857758989e-04  -3.9483789313614911e-05 0.0000000000000000e+00 7.1217285050766620e-05  -9.9177973761058227e-05 0.0000000000000000e+00 -7.5939382326880288e-06  -3.5408578125089245e-09 0.0000000000000000e+00 2.3483430536328614e-09  -4.5124267389077314e-05 0.0000000000000000e+00 3.7726605180387823e-06  6.8174799832070314e-05 0.0000000000000000e+00 -6.2149534780596430e-07  -2.7188932355348286e-05 0.0000000000000000e+00 3.0001198958140103e-05  5.0838073021037808e-05 0.0000000000000000e+00 2.7280600818000298e-05  -3.3105716491801594e-05 0.0000000000000000e+00 -6.0577160352321644e-05  -7.0112676548165766e-05 0.0000000000000000e+00 5.0839800047321964e-08  1.3410087022225604e-05 0.0000000000000000e+00 -2.6058420515039233e-05  4.7368727033642956e-05 0.0000000000000000e+00 -4.0767945517585882e-05  -3.6836662609775924e-05 0.0000000000000000e+00 5.8754255935663904e-05  3.5334634429775802e-05 0.0000000000000000e+00 4.7392472334934968e-05  -1.3052660147617272e-05 0.0000000000000000e+00 -5.1493096637786887e-05  1.1686806729328349e-05 0.0000000000000000e+00 2.5393998958769229e-07  2.8114935056579876e-05 0.0000000000000000e+00 -6.7424562573521890e-05  -1.1114596676288508e-05 0.0000000000000000e+00 5.1171038835152957e-05  2.4646592986656114e-05 0.0000000000000000e+00 7.2000668996288666e-05  -4.7732207506064655e-05 0.0000000000000000e+00 -2.5482405663432903e-05  -7.0183595362879983e-05 0.0000000000000000e+00 -3.7914312515837078e-05  7.1440409904712475e-05 0.0000000000000000e+00 4.8366593989030499e-05  -9.5373062365315914e-06 0.0000000000000000e+00 7.6375159086441001e-05  1.4699324427769982e-05 0.0000000000000000e+00 1.9529963198482899e-05  6.0597777824959440e-05 0.0000000000000000e+00 -4.1004866402893557e-05  6.0626862780279727e-05 0.0000000000000000e+00 3.7603506012005150e-06  -6.9562155116442947e-05 0.0000000000000000e+00 4.5965701457831176e-05  8.5494650168284504e-05 0.0000000000000000e+00 -7.2680255154314668e-06  -1.7079309391680970e-05 0.0000000000000000e+00 -6.7660846543879158e-05  -8.2215355317182576e-05 0.0000000000000000e+00 2.9512755904214966e-05  8.0343196799386682e-05 0.0000000000000000e+00 -4.4640234133342237e-05  5.9611966382893625e-05 0.0000000000000000e+00 -1.1287095445310220e-05  -7.6487225463034162e-05 0.0000000000000000e+00 -4.5660949753737427e-05  1.7682266266927724e-05 0.0000000000000000e+00 -8.2166711277328688e-05  -2.7626168785770380e-05 0.0000000000000000e+00 -2.2784120616968803e-05  -2.6774739385357808e-05 0.0000000000000000e+00 2.1225629438915372e-05  3.1825729658251945e-05 0.0000000000000000e+00 4.1891519375413156e-05  -6.9504382746340566e-05 0.0000000000000000e+00 1.7414366443819373e-05  2.6842871221665552e-05 0.0000000000000000e+00 -4.3094193224103856e-05  -1.9216768226540566e-05 0.0000000000000000e+00 -1.0156502201966060e-05  -4.6432655357378973e-05 0.0000000000000000e+00 -7.6102840328681406e-05  8.0118659212894688e-05 0.0000000000000000e+00 3.4450739853558373e-05  1.0123619137423460e-05 0.0000000000000000e+00 1.0919495237272283e-05  3.0080279214789429e-05 0.0000000000000000e+00 -2.4016132360209444e-05  </DataArray> 
</PointData> 
</Piece>
</UnstructuredGrid>
</VTKFile>