<?xml version="1.0"?>
<VTKFile type="UnstructuredGrid"  version="0.1"  >
<UnstructuredGrid>
<Piece  NumberOfPoints="201" NumberOfCells="657">
<Points>
<DataArray  type="Float64"  NumberOfComponents="3"  format="ascii">-0.1101901104769993 -0.04605516451454252 766.6925005590797  -0.05479668396139954 -0.006548569307117984 -766.7950418665754  1485.336101118862 0.02687883361515856 -730.7018304223599  2821.951711846141 0.003425229759133202 -624.5010703137784  3878.19587652785 -0.005650415726102111 -456.7734254964529  4553.754940127663 -0.01455009289610898 -241.1534647179005  4786.08750899618 -0.06383948027507669 0.02549192761118431  4553.780978265268 -0.0831680015309765 241.128862424513  3878.191175727662 -0.03375239852234851 456.7012127645581  2821.916039096584 -0.01222465089675965 624.5287291480535  1485.346888076278 0.0615640282225895 730.576292055242  1880.425164857543 -1394.905410235605 -669.9502467305069  1868.653195154409 1083.669081912323 685.9301558467516  4556.114941619934 -1237.910630003287 -115.8574481036984  3286.865297899495 -1353.102868629565 517.039550752937  4146.936695213158 1252.850734466593 327.7671945110103  4129.858075267611 1252.737431354842 -333.4073905817079  2099.488849487831 1248.443592870196 -661.3817433104978  724.0180161483055 -1249.368072373692 730.6457202024898  3265.796506118692 -1246.947398586945 -527.7263647431652  2273.534837704156 -2446.911138880697 -544.9743027440375  3374.096879658738 -2395.65084866189 -377.2127690037851  2313.211763317264 -3424.221692637158 -362.4494399746171  3256.904588013664 -3211.293761136379 -179.0262369145919  2043.453537794598 -4073.698239295278 -152.0689273592753  2909.180473550676 -3655.278633695737 38.49946032593134  1528.017524415109 -4351.833335920021 69.38808614313783  2217.555905671757 -3782.315673545875 262.9769049707809  798.8725250506418 -4238.752995336128 279.4666709000914  1420.729534723638 -3460.821517046399 459.999249202331  -55.21978464245854 -3717.537328809311 460.8372915758862  3400.537448499208 -2970.931770002911 222.0016538690558  3265.916689757013 1246.888090870437 527.7228880953353  3305.802377803042 2411.583514876269 390.0859834028127  3999.635824783342 2308.947141306371 177.1520106147362  532.1106431247186 -2765.708016238658 612.8604665239034  1948.287863927062 -2424.484893313758 578.7408734261745  2273.636852734959 2307.616652595157 561.5310933949338  2188.032761244262 3371.908342255357 395.2335752181275  4564.896632238359 -1207.770283575179 115.8492291026273  4024.481266316984 -2495.451934968019 13.42714403399147  4156.203317143871 -1253.95641963507 -324.5015461000547  723.9988224985594 1249.398943332836 -730.5235093597832  3233.551137643187 1215.775082070612 -534.8602157885831  3280.548258743739 2398.696222634343 -397.8254824815728  992.2021097189513 -4112.889190212723 -314.5964715804238  -694.2304202123634 -4289.035952603178 264.6502239806747  970.7535975500491 -2511.608210735144 -628.9394495771458  3972.402497878917 2336.643054200224 -183.0824153973959  2970.800986925755 3375.680871653468 -220.2739626166489  2111.593331591606 3288.414029751574 -424.9210294124397  1665.483340794005 4091.818015397938 -237.3303082290328  736.4513546097249 3845.335065344978 -413.5737586453872  215.2611589736883 4429.58344095206 -215.406654892691  -754.8731492344681 3955.840833896229 -381.9683069064678  -1244.441754711756 4349.752974141757 -162.5775163059764  -2194.151842894295 3716.527141577908 -293.4332794236649  -239.4293969399985 4605.74416953512 14.43147978310291  -1530.735894506586 -3572.998330996905 425.3041298221071  -2112.083589680498 -3947.520076862278 211.4096173021621  -2574.686534396924 3860.117186703114 -79.49910590814058  -3401.752634908046 3020.347316417522 -201.5156155105274  -3622.381434712775 3012.729055293974 18.04656422742875  -4249.90438897944 1987.889299342496 -126.0615812719057  -4308.018749247112 1886.882897109832 117.5435805407499  -3778.544141489957 1885.651680714837 -357.7967253802915  -3485.12458807845 2789.059684018701 252.8094207062206  -4497.043304419766 824.4747811279697 -228.7225787720859  -3982.79496595953 1552.254322784042 344.5695149501752  -3832.630847488297 529.9226976547782 -458.1083644809518  -4300.183072340878 -598.9726887881809 -327.9557006694765  -2965.334576984165 2341.491852665127 466.2548262472229  -663.6720311467351 -1917.735796404923 692.1105994493304  -2886.228588102671 -3054.474154785916 347.5829254417319  -3445.750863767095 -812.2325059523209 -521.7524585733412  -3718.699898630087 -1904.633841162234 -371.2338729177896  -4599.781358851339 523.2995227523618 197.4551524161823  -1603.303517533794 3081.842359751593 -516.2892430675763  -3281.677498997788 1000.436859597815 539.720061767008  1031.740861109899 3114.809093354614 547.3674192817978  -4431.125067264604 -1558.979825532043 -132.4798143095242  -2794.439425940374 324.7292276153558 -625.463479444066  -2177.043554683173 1783.971621312602 620.3888124263453  -2683.104382105554 -2051.231419105512 -542.4067015874418  -2806.010425334665 -3050.55965664682 -365.4165211458293  -2364.615841206668 3435.032635063876 350.6154401778956  -1206.280849870812 -4453.768025282677 50.29127868410025  -2294.157413713484 300.4943080122895 674.8449590259202  -3385.272108408249 -433.5722466174972 544.0268443042091  -1621.353511616719 -3062.222313662839 -517.9823205667919  -1624.638076678033 -3899.30561108698 -322.509034765529  -1399.15952273765 -1941.671322080335 -662.5782622855004  2426.744257835104 3973.261123642995 -22.04259009515545  -3263.980359594934 -3273.974461491531 138.4326125277333  -3931.0678138917 -2211.687581096317 242.084842419592  857.8892090571285 4005.441127396404 361.0467070475478  -310.1077746111032 3615.088796168778 480.4467480143751  -107.5595325561342 2727.134937152501 623.3301496103634  -1301.859503218689 1153.41915941737 714.951115958561  -2167.204011328189 -2501.218860180473 549.2785920565716  1131.207078990392 3045.408615083636 -553.0334701263425  -2683.176252092287 -3685.76293540705 -170.3999940312481  -355.6150841625438 2338.576915929299 -662.4372895782871  -788.84189583382 1003.512545610464 -739.0232125484757  -532.9329794052043 4310.333128762259 264.5644576286759  -1015.656854559948 -710.5162383849862 741.0374189329126  -346.3759643067512 -3784.78873959774 -441.7310587842014  -2192.293689159661 -1140.485507457061 659.11842395269  -3373.696121714074 -1833.184843036004 457.6793281703594  -4196.801603420277 -880.5048681410459 344.9914419888855  -4588.156088869646 -1142.270381053109 109.6827827322937  -4765.372238989311 -148.5047889548103 -67.93247575636245  -1844.069367900283 1986.35380809333 -630.8935648060242  -2793.676394159401 2194.898209849752 -511.5102537482716  -407.3781411431607 -4343.087045308726 -255.0891280239803  -163.1952555090557 3414.201364950474 -521.6490300411824  1909.036327166814 4055.786127990615 203.7030826186407  4128.644361136046 -1198.539048889866 339.3544431199376  240.0294136609181 -1311.209737844141 -735.4369953587384  756.5597112492658 -4499.173341487975 -120.2560932561729  -1460.787254204671 2952.461112967993 547.1178075456744  4575.573814758433 1160.610135715748 -118.3294694183999  3058.703316593325 3344.84451393571 200.8067023080428  3607.295334933414 3030.722705115597 -8.928708112241603  -3655.102184575861 -2741.984867103273 -197.3199433075728  -1585.824278948494 4337.212835859821 60.77429242077848  -2660.772356238372 3740.80993507178 142.8107011823235  -260.3280677887043 -2827.379225301248 -609.7006617562503  -1120.212129772983 -516.6878808819121 -741.7496695360577  -2359.237850229446 -828.475643070434 -657.1601125297875  1105.580816849936 4481.496695445997 -39.93478356026012  129.4138766123916 -4582.412442769511 86.77230402672166  2646.329646226122 -2917.711507092016 422.9136489092874  4583.554897132558 1175.47480140381 105.0176364877791  2100.598759230234 -1239.411347877687 661.8180046180393  -4048.095237321181 -2458.276465603602 19.29946696775393  -858.8582355444186 -3049.944087163742 564.7248645284493  2337.615445233404 2237.226026449204 -562.5739280137822  -4105.309852197335 368.1426691307592 396.4933466527912  1076.320782127335 -3440.243921780264 -487.7285158858357  1176.245049788671 2221.561854937584 649.4708508392807  681.8102935863624 4462.053393886459 163.97564272675  -2979.757008706308 2894.106377847309 -365.3647136372888  4003.977894205905 -2223.729885671747 -203.9823546910469  -73.61317978634575 1204.348161438008 741.0075850128313  3628.821763574503 -2165.657499342921 353.5877030472009  -4646.80033965249 1099.423563756809 -17.79708136669429  -2473.813889664791 -3948.488752569153 7.472587719638081  -1510.946005832871 -4309.904545724557 -129.4151691313875  4293.81403188727 2037.49029170903 -5.466663617779195  -1071.860199614963 2279.13913913449 648.6553039130574  1333.908902111811 2069.753255227968 -655.476430462817  -1620.288092392818 340.1909645254419 -721.3874528991164  -1750.744011046191 4037.133734619079 247.7312601682351  4072.259500835926 -2068.356659862145 214.6366198428794  -326.2329518584723 -4578.663276054042 -78.40322309082637  -3076.925879516922 1201.765159847904 -558.8216860598199  -2105.163734757751 1022.282627810378 -671.3838323895446  -1340.111280907864 3714.726473258862 407.5202393861195  -3365.452408285203 -3269.63773803653 -43.67378567039317  0.004675687970835445 0.0210338477399492 -0.01064828523346854  -1532.013977075843 -1811.076030637829 21.2946604873713  2316.577174291586 706.2973661530315 -3.525222193165614  -923.1442530740983 1903.915570729588 169.5599770481995  1727.075226046847 -1349.661596075762 154.2613382081011  -1126.156716123405 197.6934421635 -341.6964591477241  -2382.675893300182 359.4270507444365 0.2745976773478162  455.3271101168279 2153.442601021534 -147.2914585112372  1610.000772807555 -1061.426446105071 -230.3801950791569  -1252.868303234603 -201.7537254515517 331.5684304129941  1200.792625207897 1602.506976121307 267.9152708462896  -443.3948526127855 -1828.961715268322 -290.9155218035305  396.2907657522206 -2639.687845759932 1.413864244963969  956.5504293186077
[...]
<PointData  Vectors="Forcing"> 
<DataArray  type="Float64"  Name="Forcing"  NumberOfComponents="3" format="ascii">-4.5081764583938900e-06 -1.3974033342260862e-06 -2.5137268085996978e-04  -2.9446579331156845e-06 -5.5416752157487740e-07 2.5029467834116853e-04  2.5435612431247134e-05 6.8213217355446483e-07 2.3503373053588073e-04  4.4973230009875090e-05 1.8596461948514430e-06 2.1236190050234687e-04  6.7660553326428973e-05 6.0193272251189919e-08 1.1310529276788500e-04  7.5294531539438388e-05 2.7861790063642690e-06 7.3846241579625821e-05  7.5551868428788444e-05 -1.0255722294686107e-06 1.5314665699768855e-05  7.0817924901217934e-05 -2.3635535013484875e-06 -6.4599698515099057e-05  6.7128259859020137e-05 4.8884547347411640e-07 -1.2249004891594245e-04  4.4572671174246680e-05 7.7206466297126665e-07 -2.0775074153283344e-04  2.3777584471012766e-05 3.5957771344373318e-06 -2.2633590278156650e-04  3.3846883196042709e-05 -2.3217914735001491e-05 1.6669661765007440e-04  3.0066421869335814e-05 1.5909317730201412e-05 -2.2141996332849446e-04  6.6791502847480998e-05 -1.6687177528573874e-05 3.2056528567258362e-05  5.4529369889888046e-05 -2.0828125343378615e-05 -1.7611982564647163e-04  7.0906719957275765e-05 2.0103321195943202e-05 -1.0514996246943228e-04  6.9642491776859505e-05 1.9176540320542998e-05 1.1201533522779545e-04  3.6162263632623338e-05 2.0537542176932039e-05 2.0058591804145661e-04  1.2410872947186616e-05 -2.1073094440362909e-05 -1.9377266480387885e-04  5.1691239293040058e-05 -1.6378411791883360e-05 1.8007216233099221e-04  3.6403084644096233e-05 -3.6375255519021716e-05 1.7667959403672542e-04  5.1556102381964532e-05 -3.1757585942438132e-05 1.2375507544057246e-04  3.7405432138561160e-05 -5.1365132515494482e-05 9.7978504182918427e-05  4.9597850682521651e-05 -4.5308339919769172e-05 4.6800141537881010e-05  3.4190912800296953e-05 -6.3433051628108175e-05 4.6886781132860419e-05  4.3398099909903613e-05 -4.9363604913240302e-05 -2.5741327039709309e-05  2.1517490998385481e-05 -6.3395427304046068e-05 -2.6597747600366067e-05  4.1273125723120577e-05 -6.6040155914918452e-05 -6.1434482976539264e-05  1.3776817153419696e-05 -6.5381307093677991e-05 -8.9241867901846794e-05  2.4275544682271160e-05 -5.5742862237867777e-05 -1.1783793518434754e-04  -1.1461795042876211e-07 -5.4727267695923865e-05 -1.4096422835662911e-04  5.3413990508651159e-05 -4.0331845270100838e-05 -7.5185724053298281e-05  4.7519296405998667e-05 1.6073704233656477e-05 -1.8927778787113038e-04  5.3048546360373994e-05 3.4611354463147092e-05 -1.1629079035536316e-04  6.7915535969907090e-05 3.8461751523051326e-05 -6.5166904888542805e-05  9.6139627587538851e-06 -4.2264610478924459e-05 -2.0765969397767606e-04  3.1327396814953401e-05 -3.5879099363187667e-05 -1.9893402022351113e-04  3.2329320422358881e-05 3.1612718873198465e-05 -1.8855526959306789e-04  3.1864884520225583e-05 4.8798035317312777e-05 -1.1547837195548809e-04  6.3734563726164026e-05 -1.8654397964788762e-05 -4.5205190823671438e-05  5.9684115131303403e-05 -3.3988031731451316e-05 -9.6830058238127831e-06  6.5259411457685055e-05 -1.9806672800928915e-05 1.1765830896951092e-04  1.3434881644157749e-05 1.7127583723159795e-05 2.5264568220284084e-04  4.9618063337795436e-05 1.7637858378303858e-05 1.8420531638540705e-04  5.2431605484915319e-05 3.5682285512472736e-05 1.2041311260396250e-04  1.6042291811813127e-05 -6.9834387246252665e-05 9.0289280132636925e-05  -1.2324467229016138e-05 -5.8526260912124576e-05 -1.0014995139490262e-04  1.5688376659612018e-05 -3.9621643809840006e-05 1.8905283451029411e-04  6.1895920806885902e-05 3.5292510682220368e-05 6.7630929328235542e-05  4.3662531279926373e-05 5.0246254819637314e-05 7.0636943544834488e-05  3.3352037721671884e-05 4.7077508970426017e-05 1.3289673253272696e-04  2.1745384921369250e-05 5.9993580136258876e-05 7.8946678038103446e-05  1.2299067759064129e-05 5.4136423044141484e-05 1.5151674839906798e-04  3.2367693622648826e-06 6.5262811055001683e-05 7.7369937629734268e-05  -1.0951289045919707e-05 5.6719144739426367e-05 1.1769228818790537e-04  -1.9647519470882176e-05 6.4282530346496935e-05 4.3246128001763491e-05  -3.6140337985073342e-05 5.3560978919450779e-05 9.7520622236986628e-05  -3.5268534993004757e-06 7.0403372882465827e-05 -1.0537705531949474e-05  -2.3639889859586928e-05 -5.2694390507803957e-05 -1.3030969621904596e-04  -3.8719205440610439e-05 -6.5327904746914899e-05 -5.6525382146162186e-05  -3.9307384507767634e-05 5.5485021905681663e-05 2.5677310526795011e-05  -5.1690080895844461e-05 4.3726673623404298e-05 6.8521223355891538e-05  -6.2216573286711318e-05 4.9529843500784736e-05 -1.4007809926890884e-05  -6.3453152914540029e-05 2.5641890049123837e-05 3.8833643283779136e-05  -6.8830182708230493e-05 2.8441792280452000e-05 -4.3674470348512060e-05  -6.6302841024641439e-05 3.3834565434847912e-05 9.3306219678033445e-05  -5.2203907708858390e-05 4.3721928141895775e-05 -8.4062938971879602e-05  -7.4560357859448716e-05 1.4331840432271570e-05 7.0995331143904609e-05  -7.0880352817271803e-05 2.7182777212537843e-05 -9.0369871591143038e-05  -5.9485220799255531e-05 1.0249975688667258e-05 1.3280708475548134e-04  -6.8130808813455149e-05 -9.8673897151043619e-06 9.4100422483579937e-05  -4.2430969013794016e-05 3.0057369862961456e-05 -1.6650788825789035e-04  -8.3002865512336676e-06 -2.8015978488305130e-05 -2.2266239218419977e-04  -4.6339677518614980e-05 -4.3893080197338341e-05 -1.1303759314351215e-04  -4.9719921371226435e-05 -1.0403428583348071e-05 1.8500292334866852e-04  -5.8929180063980441e-05 -2.9534392626269681e-05 1.3063023339057378e-04  -6.8441245520635456e-05 1.0468590102400636e-05 -6.3781075358914480e-05  -2.6838059078935953e-05 5.1184882893121686e-05 1.3276732980268543e-04  -5.2825061556917180e-05 1.3843477383871387e-05 -1.4914637195683310e-04  1.5840199435500850e-05 4.8056782820575210e-05 -1.7203022221360181e-04  -6.6168979061179915e-05 -2.2006457215587126e-05 3.8101197065297843e-05  -4.2277937238565032e-05 6.3006648612899275e-06 2.0772930923162287e-04  -3.3657377559656540e-05 2.8831867324628230e-05 -2.0116489969932016e-04  -4.9730539909453124e-05 -3.5892305319036941e-05 1.4106329904206685e-04  -4.6773965006335861e-05 -4.8231961957216526e-05 1.2901691916719651e-04  -3.3063381329945517e-05 4.9504442831851326e-05 -1.1564502916524549e-04  -1.8040604756321277e-05 -6.9404332463389692e-05 -2.0832769816511785e-05  -3.4201760426157691e-05 4.1355668582647771e-06 -2.2778959022338468e-04  -5.1292698629754352e-05 -7.2127224239342698e-06 -1.8029836381287757e-04  -2.7445490928196464e-05 -4.6079824137068733e-05 1.6107858243988296e-04  -2.5401423711507679e-05 -5.8850002151356385e-05 1.0035072413839257e-04  -2.3802741215049103e-05 -2.9514280761642043e-05 2.2728996673631910e-04  3.7363868810320136e-05 6.0915452330242722e-05 -9.2829982604347184e-06  -5.1257364747830044e-05 -4.9957723847347055e-05 -5.6248433220312218e-05  -6.5731150315556116e-05 -3.7507088327946118e-05 -7.4525710402964802e-05  1.2075313017949235e-05 5.9785888379324386e-05 -1.2560427654129908e-04  -6.1713844756512510e-06 5.2774370484910715e-05 -1.6225698670482042e-04  -2.1684643134722875e-06 4.7122399297089026e-05 -1.7574577811763572e-04  -2.1041034976926981e-05 1.7632979680664233e-05 -2.2445423135057500e-04  -3.4361250138842431e-05 -3.9355062043431907e-05 -1.7568693033500539e-04  1.7140119469632794e-05 4.6080785866514475e-05 1.8872151377057931e-04  -4.1146583586418606e-05 -5.6784978117153316e-05 7.0833652623008739e-05  -4.7204170423774501e-06 3.6770190735988990e-05 1.8854817035092195e-04  -1.1760377426836488e-05 1.0709981013379389e-05 2.5819845747342899e-04  -7.8874552471533302e-06 6.0820258209760164e-05 -8.6063902627359974e-05  -1.7085703642060677e-05 -1.4681049408282945e-05 -2.5501758360216493e-04  -4.9280576676216258e-06 -5.5061690642940841e-05 1.5056604431598077e-04  -3.5439486088743994e-05 -2.0002058267325866e-05 -1.9258936559993188e-04  -5.2150847921130879e-05 -2.9978397109633601e-05 -1.6695834781658254e-04  -7.0528626846048497e-05 -1.3866490798508904e-05 -9.3803794761879432e-05  -8.2295137342015891e-05 -1.8303379020341290e-05 -3.6746777622245577e-05  -7.4536414889554033e-05 -6.4944191773661552e-07 2.8955009558200195e-05  -2.9418987361441307e-05 3.1026368614115520e-05 2.0600871319775789e-04  -4.3305287699049249e-05 2.8412029789873725e-05 1.6425129769318412e-04  -8.1842259633720539e-06 -6.2488624415337079e-05 1.0210426156568945e-04  -1.2305032191426035e-06 5.8335590152092325e-05 1.3864056630397047e-04  2.8738863223322008e-05 5.7572458228097512e-05 -6.2826579895188209e-05  6.5141107138639803e-05 -1.8884157190745084e-05 -9.0746071913638810e-05  5.6612349695292942e-06 -2.1015596866936072e-05 2.2256386456557002e-04  1.2612006217328380e-05 -6.4914561223133757e-05 4.5487427447888730e-05  -2.1469908271737915e-05 4.6571521091065648e-05 -1.8071211625881586e-04  6.7422857259021398e-05 1.7093378650037110e-05 4.7466089660839140e-05  4.4250052213044284e-05 4.7251053891125868e-05 -6.8584224543002335e-05  5.5915123909744176e-05 4.2578090745138615e-05 -2.1201133049002394e-05  -5.4622474950239829e-05 -4.0692557720605751e-05 6.1370772513022142e-05  -2.0597588167847034e-05 5.8101483629532877e-05 -1.7294198402925339e-05  -4.0944673826674823e-05 5.9468172554997154e-05 -4.2110921742679790e-05  -2.8444685746804031e-06 -4.2469229289666927e-05 1.9880209498426970e-04  -1.9141968167716054e-05 -6.6666062965640678e-06 2.6032267390234387e-04  -4.1997443950237823e-05 -1.1628795336558510e-05 1.7625969656181567e-04  1.6246124527794990e-05 6.2744520717223607e-05 1.5769753485679972e-05  -1.1939459173046986e-06 -6.8368480866982484e-05 -3.3335080434416701e-05  3.9734262882590922e-05 -4.3795899435995325e-05 -1.3804885320300083e-04  6.7647583976922359e-05 1.6118689702577677e-05 -3.2930584048489644e-05  3.4922584297859881e-05 -2.0188985410052958e-05 -2.0157655814401955e-04  -6.0306899585036435e-05 -3.5763738662511551e-05 -4.7472702633283206e-06  -1.6102085670448382e-05 -5.1961275213953257e-05 -1.5613851713450384e-04  3.6730690127642962e-05 3.2864803633734553e-05 1.8551548701413369e-04  -6.1824269666536141e-05 6.7168346618849657e-06 -1.3536735797546238e-04  1.6181149612859238e-05 -5.1801733002202265e-05 1.5309269732308934e-04  1.9932130172466029e-05 3.5804782970743062e-05 -2.0906892000895717e-04  1.0691140699430966e-05 6.7730176103490301e-05 -5.4748312523986662e-05  -4.5413730638500988e-05 4.0690127923147009e-05 1.4444505251060168e-04  5.7091696415057979e-05 -2.8648454408949915e-05 5.3902621718486358e-05  -4.0638037253007270e-06 1.7769010640839222e-05 -2.3431358139681903e-04  5.6653599800964655e-05 -3.3838561445351341e-05 -1.2572867914300876e-04  -7.2413413771517916e-05 1.5977101836820189e-05 9.7944940082027173e-06  -3.8903459787794342e-05 -5.7147370177081195e-05 -3.9553576389699867e-06  -2.6689478867654566e-05 -7.6078167592654028e-05 4.0687727278889170e-05  6.8330063736591557e-05 2.9455909602091583e-05 -1.2786039190843358e-05  -1.7867388581821129e-05 4.1242540395011931e-05 -2.0658131667153316e-04  2.3840036187492593e-05 2.8858366250520601e-05 2.1975224463822293e-04  -2.0312713898741512e-05 9.1857799720348783e-06 2.4596565443879949e-04  -2.5245204507442749e-05 5.8950381553978140e-05 -6.8806977581774813e-05  5.7086173548677133e-05 -2.7126914939747948e-05 -7.2916290259873934e-05  -4.0549792030639317e-06 -7.0534564242951826e-05 8.5083734192672118e-06  -4.4082843958716947e-05 1.6346833274146755e-05 2.1669290776222768e-04  -3.3377855147118416e-05 1.6766929524283023e-05 2.3147604241801159e-04  -1.8478789290478189e-05 5.2141997152583555e-05 -1.3016852781098145e-04  -4.9271335983188323e-05 -4.4777528160786897e-05 7.1497823898375759e-06  1.0918596507864278e-06 4.9798683423360071e-06 -8.4879850564248725e-06  -1.9204373645596760e-05 -2.3639605808268901e-05 -1.6468652606651816e-05  2.6580544226957885e-05 1.0117590856454017e-05 -7.5737298298331108e-06  -9.1881701835989543e-06 2.2761895096188417e-05 -8.9779356136058573e-05  2.1609272755426283e-05 -1.6539968687428287e-05 -6.8984460588283444e-05  -1.6959039032746451e-05 6.5655124920201118e-07 1.5601896009602136e-04  -3.1599186252154379e-05 3.9162469289476739e-06 -8.8481077085953139e-06  5.3075280439155721e-06 2.3835161873804398e-05 8.8339285856996639e-05  2.0434402106837517e-05 -1.1996895767422379e-05 8.8154354616340182e-05  -1.6489105679198361e-05 -5.5550996363836665e-07 -1.4712844693985514e-04  1.3878923516033007e-05 1.7449233408719214e-05 -1.4866832245457820e-04  -5.1014113507371980e-06 -2.5520207874309427e-05 1.0739904391755337e-04  5.3992122552994177e-06 -3.7796638615107324e-05 6.5531637785808612e-06  1.1603112152605811e-05 6.8910156336739714e-06 1.9643955647974829e-04  -4.2444784592801253e-06 -2.9877080480707811e-05 -1.2411534584453527e-04  1.2633440637207094e-05 5.7752834232204095e-07 -1.8939795506282012e-04  -2.2731266822583067e-05 2.7501772196729960e-05 5.8345389738221098e-05  -3.1261169442168871e-05 -1.0256128462928727e-05 6.8760096402974618e-05  3.3736088657198699e-05 2.5486262385916184e-06 -1.2486367142678585e-04  -4.6038642297924279e-06 1.4715677308038169e-05 -1.9652010276758074e-04  5.4055323028635567e-06 3.1949057486418276e-05 -7.3497942301317261e-05  2.6222163822127681e-05 1.8163437057947110e-05 1.1847976865919660e-04  2.8747300389733525e-05 2.7947690092800590e-05 -6.9939608032876398e-07  -3.0072023971435313e-05 1.3988316285512729e-05 -1.3611172297517244e-04  3.3095663851943090e-05 -9.2201629806842377e-06 1.4147201283074845e-05  -8.9805687632198020e-06 2.1648179761140598e-05 1.7341783216381850e-04  -3.5382559313843322e-05 -1.1377683115573490e-05 -8.2506206170784112e-05  3.6850378079252213e-05 7.2631218824097113e-07 1.1055376439839270e-04  2.3613860307183368e-05 -2.5248095905150110e-05 2.4432899651001644e-05  -3.3699886142563981e-05 1.0805916756837872e-05 1.1776518124032876e-04  7.6516711021431193e-06 -1.2535123577020849e-05 1.8008394468706511e-04  -1.1580012669075129e-05 -3.5865117320924307e-05 7.3176357552136464e-05  -1.1480866684524134e-05 -3.6614868506603487e-05 -7.1324675244630281e-05  1.4283835123335921e-05 -3.3285306682466800e-05 -1.0085368189880837e-04  -3.0379108226183717e-05 2.7435763821847166e-05 -2.2986320196476562e-05  1.1716941104759937e-05 -3.3007081647554180e-05 1.2926438580109845e-04  -6.8189153194473692e-06 3.7626249158945607e-05 1.9302472476233894e-05  -2.1233448283862608e-05 -1.5291872450828799e-05 1.8719593855105399e-04  3.4718741659371838e-05 1.7183714366973028e-05 -9.0039514612709918e-05  3.5443975225539752e-06 1.9258819068376251e-05 -7.2732662407028461e-05  1.3887599078094638e-05 1.1017957512701668e-05 9.4495907121396332e-05  </DataArray> 
</PointData> 
</Piece>
</UnstructuredGrid>
</VTKFile>