<?xml version="1.0"?>
<VTKFile type="UnstructuredGrid"  version="0.1"  >
<UnstructuredGrid>
<Piece  NumberOfPoints="201" NumberOfCells="657">
<Points>
<DataArray  type="Float64"  NumberOfComponents="3"  format="ascii">-10.54402651609892 0.162137375027583 116.8052298124733  -5.543630566478059 -0.9742123579012556 -118.3473394829641  1975.271864450452 -6.072802625444106 -136.7787518731911  3378.384549742125 -7.160967592489555 -167.2638271236226  4175.189360655243 -7.800771061379843 -179.9458198912118  4587.202616748474 -7.485387134293411 -115.6692867630628  4716.548373708738 -8.105874473829289 0.9632532698566663  4587.885464203095 -8.898709380857484 115.907063529749  4175.15015605899 -8.70290451347182 178.5468732376288  3379.341634917244 -9.568806910783923 166.3615290218085  1976.944588348203 -1.916016840374435 134.6812474104264  2342.753586625258 -1146.01005905738 -155.1522855854688  2377.288423575645 895.5672107699456 148.4321779457038  4528.573463022253 -887.0187758320111 -58.29466453425276  3654.821394592158 -1033.648663600241 179.0120511769791  4268.649617202081 906.9236641473893 148.5357778411798  4262.358166085786 906.2795881649643 -149.3059307778184  2596.638742465094 1014.964569308148 -158.8624620231698  969.5106532081792 -1075.662029939346 133.8430323818429  3652.222259393342 -959.2627007131817 -176.7291631073209  2582.613170228485 -1879.162951728994 -169.6899775168142  3549.822105096036 -1750.029460370595 -152.5600278788671  2435.080086172459 -2472.024385109572 -142.8613434502298  3279.348612190416 -2263.33301914125 -82.41827218400634  2067.253595534186 -2840.935520394771 -66.55781748744502  2903.341422451827 -2547.937828707187 17.62566184969299  1533.253526508912 -3013.305659755901 30.70635799206894  2278.721271643203 -2675.725401325019 111.6631803615767  824.0993325217244 -2991.878787522712 111.429975396438  1557.924771385608 -2558.820337714877 157.881259352219  -59.35731125823768 -2741.628014629373 154.5317909115097  3446.881546856194 -2107.777024565099 98.11085857420437  3659.626946058785 947.1842482741489 178.5635332949205  3490.912167211071 1756.923163333864 156.9917453300743  4007.240524756468 1632.596750285576 83.49548486972967  640.4597072642483 -2189.304888858454 153.3609863487779  2276.880791655148 -1890.252737518341 163.9837306321782  2611.442244106516 1775.162258408308 169.902295046367  2325.786846283038 2443.486300034021 148.0296035193275  4537.394339878096 -865.9159660112877 57.70541309842874  3996.693993865157 -1759.122383288551 5.633367359995888  4287.137565988744 -917.796036704033 -143.7447044293048  952.0343397293863 1075.895171500492 -130.4026946228745  3636.68195522008 928.7315826879127 -179.5898128742003  3471.260858655961 1751.486159406778 -159.2088503122049  1033.794442041993 -2923.717812216852 -122.6887229322158  -726.1785283186633 -3020.639034732046 106.141462007152  1186.804473721408 -2003.868558558354 -153.3220684084453  3982.915677288515 1655.192699981041 -87.57833194158751  3015.793153292981 2374.365953293772 -97.97279905986832  2275.607560806031 2400.001628386762 -154.6945330956214  1705.013017487146 2866.058505724528 -98.1707124792143  787.3218837525054 2787.261620293359 -146.460933072206  203.8176776110784 3085.905099556948 -88.34590359088753  -824.1143163579882 2852.23976462307 -139.2786124555619  -1285.574306673635 3027.874176260415 -70.06260115512872  -2285.691504880736 2652.31251344323 -122.4413418885666  -261.9752754814052 3169.348503227122 6.591545475577409  -1663.658833390501 -2614.157052325262 150.7297085413283  -2154.181357621592 -2775.836752144828 90.60824879348671  -2594.350220668664 2699.62621982156 -36.10842595777409  -3437.642374940466 2155.351845911737 -92.53338279700155  -3599.477994423233 2129.310843752532 8.222307519049441  -4229.854889496222 1421.9542674906 -62.51461909567497  -4278.540730854845 1350.950911912347 56.47134695876652  -3928.592940070811 1389.919757584441 -152.2877262099076  -3546.949396781664 2004.314093957761 114.3456597860849  -4508.248396158678 607.8813848262422 -111.8003987918708  -4117.189583904379 1144.668677936037 148.7074968856738  -4115.523509940013 410.2601215068805 -178.4099892392199  -4401.338987883172 -434.6100870875526 -148.9838588269416  -3235.432492641909 1761.91603599453 168.8236704569363  -866.6239067739639 -1594.015006543985 137.4308598772169  -3013.21101849205 -2210.200016219997 140.9320198914502  -3827.271802845652 -619.0685126003889 -180.2791451029213  -3879.468499208906 -1397.935481834619 -154.9036088484398  -4580.753157039006 389.6867245780138 98.22587083884616  -1816.749801248788 2332.361251585487 -165.0555483245157  -3684.669481667034 782.4352892235252 179.0489239226188  1180.426039699584 2372.288930505515 162.5942096572953  -4387.6639266252 -1112.587742031893 -66.81881473096456  -3329.494275099842 263.5901437411704 -168.3708877730357  -2602.182038229514 1436.902118651454 163.7871745104076  -3031.060267343922 -1578.042158132834 -173.6818033060104  -2946.556937076552 -2211.594674631928 -145.4493752938513  -2487.654570804748 2488.004295767318 140.0324450539107  -1219.476695527746 -3079.271331435791 22.2360565810721  -2863.367561498975 252.6077804975459 152.3167386794285  -3808.642318028522 -330.3080478598647 180.9176224307603  -1830.046342941033 -2313.501671105746 -164.1475085082954  -1702.260154215262 -2783.108504810485 -128.2494224523657  -1746.651972415363 -1585.09785850676 -153.5907252018274  2435.431528873029 2746.153553023962 -9.703367364976579  -3271.939890548819 -2304.387254448345 63.84228788747374  -3976.536950906484 -1586.847206868539 112.3713953225161  901.908924981732 2865.507932011715 134.9454210897532  -364.3268469423638 2680.159109102733 153.9641995621208  -138.1876332012725 2159.611735465684 155.5371953233038  -1701.689627840237 985.1340616640947 141.5312213510065  -2470.518165553298 -1923.983490275129 169.7575190802364  1296.915136063263 2329.341770145163 -160.99418150082  -2707.0280500417 -2590.875886241582 -76.00486440169726  -447.4752737999047 1904.313030359467 -147.7220524250876  -1061.373909989475 873.9553338456096 -132.4055412331048  -572.7595212191718 3030.083086337576 104.8508817255343  -1371.380106694458 -625.9963766730808 127.6544252139365  -375.3969847468164 -2777.008685257646 -151.2390970914232  -2689.580724844081 -932.2024733251392 159.9170228831236  -3646.122246153692 -1375.585175803651 169.1124681871549  -4319.347943004428 -642.8482117776274 154.777716337493  -4525.519213899604 -815.1506081585744 55.9156407549446  -4681.04339130673 -98.07711702035489 -36.12719833207101  -2235.32881064035 1598.315338819303 -162.219438742665  -3113.659661751157 1676.705499461294 -172.6673243530031  -426.3477903305178 -3053.315589564629 -103.6767598221562  -197.8674649955976 2569.393292068412 -159.6840249900294  1942.817809480699 2829.872537557514 86.46855565255228  4274.211890484 -878.1883499172314 147.8420706852477  308.5276563519643 -1132.433163215296 -128.2415766078121  761.6343780759397 -3116.937065251564 -52.20022375508699  -1686.502591400669 2267.380315594889 162.8301752951567  4538.184169353039 822.3207794123923 -60.39919091046856  3094.233977391854 2348.988321275443 90.48754696523217  3584.270216143398 2115.364802391545 -4.497255661725354  -3677.048799282288 -1948.786417683268 -89.98324841111568  -1614.802294488353 3008.373961538216 25.6372662820131  -2687.656705661619 2629.255953221254 64.46192185637489  -310.66467761108 -2230.585545557411 -153.7055095296568  -1502.599030188005 -450.3035646524169 -130.7328956507415  -2899.302611870031 -672.5717604163011 -160.4842433913485  1104.777333440472 3087.224344940944 -17.24074491140188  123.7064753579905 -3166.186373115574 37.46755617315085  2834.127529701794 -2147.366312718373 158.5242171972277  4540.178331505686 833.0512239544747 53.84966667040217  2588.006014641009 -1014.167606947376 160.5541928654208  -4012.289451622987 -1735.551481217987 9.85811410073147  -1003.230534892459 -2348.899195571224 157.6942518439394  2685.427764570879 1723.335014286683 -169.6557306754815  -4294.529607831258 282.0912556836569 167.7530905690177  1196.431947860973 -2567.343118048825 -157.6883531253838  1445.385019798333 1793.800920042356 152.0534661974503  678.519227713082 3091.958703072037 68.75331958173953  -3137.363310389401 2115.387549258328 -147.0994663023799  4035.97693204761 -1584.604661778158 -94.5529053517497  -103.146546141014 1042.634371602797 124.0951010129122  3780.102122280592 -1582.906991884059 146.9762404342546  -4571.850496495509 797.000177635687 -10.00655713021187  -2472.954904850998 -2749.932530989183 2.282719869535123  -1531.358529010584 -2995.378637344116 -56.94411892365081  4249.598376585244 1432.863734542022 -3.192173013012247  -1332.393296613996 1843.079451481023 152.8980151925225  1651.856059719419 1673.323703239492 -154.1074202404318  -2127.552533964376 298.2278630739017 -136.7007333747856  -1817.486415112669 2850.788643207165 102.9647324452805  4106.207867422753 -1479.265540745399 99.6317274424743  -336.2136219176219 -3164.606015614085 -34.19514103051072  -3510.634536787205 947.6743665375593 -173.8843585950424  -2609.639418954182 852.2426881499742 -156.3536533039874  -1458.055438435296 2704.174730170376 147.3343302502024  -3349.604607042735 -2291.459842098789 -19.7366238165431  -4.395676167309435 0.003294342468646336 -0.2573539885510309  -1917.418442833043 -1485.93165190789 3.876810467520424  2884.270032768105 578.6989437181448 -1.283234061191629  -1191.941587029717 1582.90566518293 35.71788924235891  2191.216440417809 -1124.142892198098 34.45576944051523  -1535.986283858388 178.013999476878 -57.97737503447087  -2961.564989053258 302.0964117219307 0.08145861853115671  578.4672062668728 1778.269675544368 -31.33710182633973  2089.726120728585 -895.10233552138 -46.38021607684733  -1688.555655062466 -174.828935846015 58.9252040193843  1552.01843387367 1337.911460656377 54.69456424146087  -580.7983689327602 -1534.308318962296 -58.37208501314354  491.0953630491731 -2115.650211467077 0.113316011320575  1292.49174085502 609.337021667439 -64.90148602836
[...]
<PointData  Vectors="Velocity"> 
<DataArray  type="Float64"  Name="Velocity"  NumberOfComponents="3" format="ascii">-2.3307435511174857e-06 2.2859395036520431e-07 -1.3493496810976230e-05  -1.6412897766638985e-06 -6.9528374870498743e-08 1.3573930040634696e-05  1.8577295855716944e-04 -1.2146782598260873e-06 1.2812235660585437e-05  2.8194190528784161e-04 -1.8971112512691882e-06 9.3988788365121922e-06  3.0575385003819410e-04 -2.2593508282274096e-06 3.3234944523233512e-06  3.0917339275543000e-04 -2.1026556347273650e-06 3.8086970292430101e-07  3.0917919057794636e-04 -1.9836032091872418e-06 1.0857941719638256e-07  3.0923019818357200e-04 -2.0864822311356679e-06 -2.9317011728763118e-07  3.0573529501388183e-04 -2.2744051713007890e-06 -3.4132589998379824e-06  2.8240693084009740e-04 -2.1915803511687022e-06 -9.5870972279923434e-06  1.8590026804408697e-04 -7.9966368144673694e-07 -1.2709482898240177e-05  2.0560985892141030e-04 -6.3943434522461888e-06 1.1406748493756738e-05  2.1439233460520239e-04 4.0924751590891210e-06 -1.1943887947493063e-05  3.0318264841499968e-04 -2.6096577255013444e-06 1.8137104951125268e-07  2.8019531919224984e-04 -3.2622908158479426e-06 -6.2930795630857058e-06  2.9680183082005085e-04 -3.0219042032194428e-07 -1.4014593206830491e-06  2.9778600271346847e-04 -1.6331200366611516e-07 1.6236744745671374e-06  2.2660479952468372e-04 3.7265134458092779e-06 1.0864303566665120e-05  9.3040598985237336e-05 -8.5035284657384817e-06 -1.2908815301280367e-05  2.8183504247715333e-04 -3.6363659553730997e-06 6.6679714144795335e-06  2.0708174193685675e-04 -1.7163732948412101e-06 8.3380610961192650e-06  2.5800734413930856e-04 4.4299095730262550e-07 3.9574997014758465e-06  1.8248388666158635e-04 7.9030334185086173e-06 5.0558715793566912e-06  2.2974038948352709e-04 6.3895696448578489e-06 1.6816373241239940e-06  1.5079223779525692e-04 1.6525638700746062e-05 2.1610846245566329e-06  2.0392996163737389e-04 1.0801060202503388e-05 -4.0967427489008475e-07  1.1225824681544157e-04 2.0948094473741706e-05 -8.7953465757523865e-07  1.6767419979869634e-04 1.2365938870515296e-05 -3.4010483828050858e-06  6.2536994427361351e-05 1.9452597275779429e-05 -4.5554506003117109e-06  1.2389385692422995e-04 7.7072972975589322e-06 -7.4778995820042288e-06  -3.9081638826139644e-06 1.1314079046150165e-05 -8.1637399782524652e-06  2.4189351222637722e-04 4.5058938407417815e-06 -2.2643151030014915e-06  2.8329617491385526e-04 5.7774069470416857e-07 -6.2709529604809701e-06  2.5536770248650256e-04 -2.8597998260180940e-06 -4.0204757392431307e-06  2.7309063492162035e-04 -2.5927217202330469e-06 -1.0030593929957622e-06  5.6650132884986985e-05 -2.1677020407451487e-06 -1.1046730773467769e-05  1.8928095200090869e-04 -2.6407191765871163e-06 -9.3322413107280184e-06  2.1232290472412104e-04 1.0188608358867738e-07 -8.7445311236331972e-06  1.7649399141320146e-04 -1.0009343036320099e-05 -5.8791180271458570e-06  3.0351957163326566e-04 -2.6081173933709496e-06 -3.4537354954131148e-07  2.7075238395893070e-04 1.7423132280104523e-06 -2.3868090498141950e-07  3.0041113368111251e-04 -2.7561684382601476e-06 2.0397553465371870e-06  8.8647116581173934e-05 8.2247794246987915e-06 1.3072864480030767e-05  2.8324642063972804e-04 6.0151245710136587e-07 6.4479064946873077e-06  2.5450772023004407e-04 -2.5021708387233101e-06 4.0612365041557876e-06  7.9056793083004512e-05 1.7340319173713978e-05 5.2420557215186204e-06  -5.5059873826916563e-05 2.0990245349292631e-05 -4.4855533849707880e-06  1.0532609546979783e-04 -3.7880182258544707e-06 1.1392659418725274e-05  2.7163697291277239e-04 -2.6745696006895158e-06 9.0796440623764270e-07  2.1519210004142191e-04 -1.0588496502129904e-05 2.3013557648938728e-06  1.7548057012458553e-04 -9.0643841377673512e-06 6.4575231843644222e-06  1.2592340958700597e-04 -1.9555016545011992e-05 3.6742543997238536e-06  6.0238132862494886e-05 -1.4782983134840551e-05 7.2387656071859952e-06  1.2254341671480723e-05 -2.3809819073878572e-05 3.5874496119379346e-06  -6.7761442146309532e-05 -1.4860716247603823e-05 6.4293569524652739e-06  -9.8949683508599848e-05 -2.0503663775956783e-05 2.4207453062426768e-06  -1.7124243100854347e-04 -1.0267283638343886e-05 3.8785699134536040e-06  -2.3162565497136713e-05 -2.6306315955896956e-05 -2.7096296496262853e-07  -1.3074135174668506e-04 1.0336056979521211e-05 -6.9769875957027784e-06  -1.5720081652039839e-04 1.5549611557106947e-05 -2.8516183636623499e-06  -1.8643846296500428e-04 -1.1872633946797258e-05 9.8910214324587590e-07  -2.4114897939046595e-04 -2.4740526075963166e-06 1.6781912100716592e-06  -2.4684841599356455e-04 -2.3950004727639267e-06 -2.1222695282267810e-07  -2.8480209980104375e-04 2.7115431643480777e-06 4.4043307570954274e-07  -2.8657641000353468e-04 3.0063046844575947e-06 -4.1720761178542012e-07  -2.7926459052185780e-04 3.5638120471504045e-06 2.7817597713404307e-06  -2.4951769819106138e-04 -8.1801278059097460e-07 -2.0788651539669815e-06  -3.0207526513332655e-04 3.4446198222659892e-06 3.4588119401611492e-07  -2.8884516298960578e-04 3.9695885925660181e-06 -2.3663686152836401e-06  -3.0017922085629075e-04 3.0041737786201847e-06 3.6984972919344377e-06  -3.0277621226935963e-04 1.1790694503230534e-07 1.0358989167838460e-06  -2.4661387412474786e-04 2.6827488058986076e-06 -5.9306992657977517e-06  -8.1441444741723465e-05 -7.2221877598506788e-06 -1.2725184912660255e-05  -2.1991963742658675e-04 6.0490853193415322e-06 -4.1874816242343990e-06  -2.9212513460077395e-04 -1.0846717376311923e-06 5.6766706868187818e-06  -2.7763478889902983e-04 -4.9150019200738172e-07 3.2421057376041748e-06  -3.0366566362989892e-04 2.9286432740860220e-06 -4.9402173478374278e-08  -1.4885404586919911e-04 -2.0635772541896658e-06 8.4248976532606010e-06  -2.8476257919263264e-04 4.6787142089829746e-06 -6.5952065605850542e-06  9.6796058076810518e-05 -4.6305486504302979e-06 -9.7133290598907198e-06  -2.9244379467994346e-04 -7.6738789375679575e-07 2.0877382091104272e-07  -2.7595520711301330e-04 2.2811010408995105e-06 9.4796184743919617e-06  -2.1934477344681913e-04 6.9235491755263760e-06 -1.0135011417760904e-05  -2.3966844902343444e-04 -1.6851988167820500e-06 7.7766702473438045e-06  -2.1679494437540570e-04 6.0793437015038698e-06 4.5056825513905921e-06  -1.8666258785759071e-04 -6.4736965449119967e-06 -4.6566833161842414e-06  -8.9810577773632712e-05 2.3551863506472667e-05 -8.3817244271624445e-07  -2.5045695680072727e-04 2.9411248264842531e-06 -1.1402857710505857e-05  -2.9494000325061071e-04 -3.1340130890025295e-07 -6.4297273145270741e-06  -1.4795625371694278e-04 4.0112477948134728e-06 8.3280350351057121e-06  -1.2878975703715684e-04 1.4853367513010994e-05 4.8356389174217491e-06  -1.5564193310858981e-04 -5.4780216532978367e-06 1.1462448010337826e-05  1.7492926932578855e-04 -1.8380194052760148e-05 3.5794147123464319e-07  -2.2781832439186547e-04 8.5859614110112371e-06 -1.3015480221929419e-06  -2.7529649743218346e-04 1.0319969848440771e-06 -1.4639183533061694e-06  6.8287353515156295e-05 -1.7440173118957967e-05 -6.1617425319376985e-06  -3.2734670379579697e-05 -9.9666845290574973e-06 -8.6307005559070713e-06  -1.3945024009917773e-05 1.8457269888049892e-06 -1.1400944618974874e-05  -1.5775641809163482e-04 8.2424470288003106e-06 -1.2566369092454247e-05  -1.9899852490618829e-04 -2.7721795365222800e-07 -8.5285554606357039e-06  1.0657481623043083e-04 -3.6334129316396740e-06 9.7628487242584070e-06  -1.9239444942060371e-04 1.2620892523123152e-05 1.9420635025015671e-06  -4.1571241154541092e-05 5.8811883325454258e-06 1.2016191928786937e-05  -1.0170766656036172e-04 8.3990961092749324e-06 1.3030636364647001e-05  -4.7246351006174933e-05 -2.1049071121346735e-05 -4.5410314639371070e-06  -1.3180389072434581e-04 -6.0524742311478626e-06 -1.3119981918586895e-05  -2.8910102249066530e-05 1.2398182642599011e-05 7.7675062238624506e-06  -2.3191753964860369e-04 -4.4051751471999874e-06 -1.0863369001340332e-05  -2.7249317399248720e-04 -1.0928875476949698e-06 -5.2859264649644393e-06  -2.9983778441474947e-04 -6.7337251698650414e-07 -1.4346000153961134e-06  -2.9855078812924402e-04 -8.6635777722056793e-07 -4.9173750832739545e-08  -3.0495758021851892e-04 1.3485155009072195e-06 -2.2778150812972927e-07  -1.9225191367924318e-04 6.5185915475032211e-06 1.0488850985835244e-05  -2.4278441099393852e-04 3.6847347680013489e-06 7.0446066116404050e-06  -3.1897185069752834e-05 2.1644943424331774e-05 4.2160778971892703e-06  -1.9030850443296679e-05 -7.0732407542668473e-06 9.3565000155980653e-06  1.4232377728714998e-04 -1.9143635110775999e-05 -2.9181875786387724e-06  3.0066618688250090e-04 -2.8869773009220029e-06 -2.3339389972571356e-06  2.8640553076688536e-05 -8.9905931116381623e-06 1.3206652386814767e-05  5.6603501924048961e-05 2.3793964375016219e-05 1.9265599053495231e-06  -1.4147855270970816e-04 -2.6184373194160259e-07 -9.2824232097174200e-06  3.0111345050589446e-04 -2.2775671241571832e-07 8.4455907780661621e-08  2.1956175834503248e-04 -1.0260227224812486e-05 -2.0288130390755709e-06  2.4562645961435448e-04 -7.2066645804428710e-06 4.9442409035441687e-08  -2.5476800254109282e-04 4.1904683598562589e-06 1.6864958383593766e-06  -1.2114170322122626e-04 -1.9713003798273093e-05 -9.8070895315202162e-07  -1.9301067506329216e-04 -1.0183153835206518e-05 -1.5985332992007242e-06  -2.6420036646082671e-05 -9.7375368378848107e-07 1.1170516880471888e-05  -1.4272781181689820e-04 -4.0101401314681305e-06 1.3023950126495210e-05  -2.5009376765520341e-04 -2.8819204782621676e-06 1.0558719533103792e-05  7.9945748211106456e-05 -2.5439943570084237e-05 7.0352051210217694e-07  9.3306243353528180e-06 2.5410338941341172e-05 -1.3909101174164821e-06  2.1359302830288305e-04 2.8497594688120269e-06 -5.5685132047467419e-06  3.0068926456515996e-04 -2.5020549564483229e-07 7.4990761542000600e-08  2.2397586974837142e-04 -5.9339486839629525e-06 -1.0756948754019397e-05  -2.7175039053792716e-04 2.5770332502779265e-06 -3.4841772130676950e-08  -8.4759783456456021e-05 2.5792098570567697e-06 -1.0341722251935544e-05  2.1821328078611753e-04 2.5714230827047831e-07 8.6097943569073379e-06  -3.0293975931136179e-04 2.4285019072921497e-06 -2.2076008855373001e-06  9.7102490631675430e-05 7.1280131479673723e-06 8.5403057542720845e-06  1.2695855688097296e-04 4.2784257550209843e-06 -1.1709318067522618e-05  4.8062724442038952e-05 -2.4760354641826143e-05 -2.6871300033723393e-06  -2.3164417854799822e-04 -1.2330468447822798e-06 4.2440875947029775e-06  2.7746537222921746e-04 3.4710930948190745e-07 1.3584695090506835e-06  -1.0669200799023185e-05 8.7356382751975474e-06 -1.3206730006896963e-05  2.7029774636896958e-04 -7.4150645823297338e-07 -3.4070725085440524e-06  -2.9963509311775447e-04 3.8180291278290564e-06 -6.9205012043701163e-08  -1.7531556989588932e-04 1.5691842622465251e-05 -1.6104864653513934e-07  -1.1258742796878932e-04 2.1075514490768362e-05 1.8337063919245921e-06  2.8362993005772634e-04 -1.6195646715709610e-06 9.9674192510007195e-09  -1.1986567151531558e-04 6.0538286495994787e-06 -1.1540645976956428e-05  1.4617018549798873e-04 4.4743369836535737e-06 1.1613708771115792e-05  -1.9729236347392292e-04 3.7182650386249685e-06 1.2674760531108823e-05  -1.3774123460528960e-04 -1.4920710963674100e-05 -3.6072896950167100e-06  2.8173678816325465e-04 -3.8704810772376930e-07 -1.4494901702669587e-06  -2.4534951773756619e-05 2.5522623405301564e-05 1.2366793786449556e-06  -2.7793495558567263e-04 5.5385860515080606e-06 7.7745296492070480e-06  -2.2720745115443818e-04 6.9545343888929979e-06 1.1240083035462816e-05  -1.1653562628918307e-04 -1.0516128629980435e-05 -6.6806880065357688e-06  -2.3116442180899378e-04 8.6414221902037320e-06 4.5323614836405439e-07  -1.5352960927900540e-06 4.7516161988404674e-08 3.2059263253707839e-08  -1.7040920310810523e-04 -5.5901396533107152e-06 -5.3272352979771627e-07  2.5248341080220677e-04 1.8704578418568964e-06 -5.8179819521856382e-09  -1.1070288077476952e-04 8.1135222961856390e-06 -3.0304925856951330e-06  1.9632627862934814e-04 -6.9750444947751876e-06 -2.4341827143863568e-06  -1.4802538636124907e-04 2.7422244506240576e-06 6.0014504838597673e-06  -2.5723085649948841e-04 3.2662696385766483e-06 -2.5433013834118826e-08  5.1724427122230991e-05 6.6404993826990147e-06 2.6680084529219711e-06  1.9153708796652391e-04 -6.4613705214661161e-06 4.1541738163287130e-06  -1.6097378015571999e-04 -1.2091998530750666e-06 -5.8093980414932322e-06  1.4278914176832499e-04 6.6691135689283162e-06 -4.8185049620468542e-06  -5.4507305887588112e-05 -7.7483556559417083e-06 5.1391284950016688e-06  4.4953128330900385e-05 -3.2606057446315612e-06 6.3794132055206040e-09  1.2379650017254842e-04 5.0855267736594536e-06 6.7467820920636844e-06  -4.4738383819768216e-05 -6.9092650415192572e-06 -5.3785577205584315e-06  1.1368477307861935e-04 -2.8433565796200941e-06 -7.0442608931646564e-06  -1.7576526037849042e-04 6.7780997198838745e-06 2.4813491030137768e-06  -2.5123367378732185e-04 -3.2650106230466628e-06 3.4188276038927749e-06  2.6255822254204250e-04 -1.2677482847308113e-06 -4.5185881174091468e-06  -4.5480721361981912e-05 8.9044428532969818e-06 -7.6944327945356439e-06  4.8455972188568638e-05 -4.6638347488158764e-08 -1.9838915134914229e-06  2.1546062671272965e-04 3.4315695614097453e-06 3.7494849043239767e-06  1.9767250835644594e-04 3.6929401248306330e-07 -4.2620726743096993e-07  -2.4577083025033070e-04 6.6447038419021239e-06 -4.2614200381368632e-06  2.7431021979076284e-04 -3.9555936207080933e-06 6.4630040301576566e-07  -7.1749418053397625e-05 8.3842986385022430e-06 6.7661501284374087e-06  -2.7039812036401062e-04 -2.6223810514451163e-06 -2.4237956173325177e-06  2.7823292278929767e-04 -1.2278196219837680e-06 3.7475727096727927e-06  1.9535618587160225e-04 -3.0948327253435833e-06 1.1389205157755696e-06  -2.6315643645839461e-04 5.7720212616718004e-06 4.0898509551455953e-06  8.0356989691708619e-05 -7.4063646862556565e-06 8.3037906906677981e-06  -9.5345621223913785e-05 9.5217460502153937e-07 2.1440573186658199e-06  -8.9819600151289805e-05 2.7795947925619210e-06 -2.2949867580324855e-06  1.1164614496728268e-04 -2.2116547499662397e-06 -4.0108685122715843e-06  -2.1880485865962302e-04 3.8665204724325161e-06 -1.4734229466162463e-06  9.7923815255238742e-05 -2.9146272716290257e-06 4.5167587058032000e-06  -6.7665489081841443e-05 -2.3658156292500726e-06 9.6440729064303269e-07  -1.8405311239519620e-04 -5.9124796117086646e-06 7.3420690824343143e-06  2.5735137753793864e-04 1.7217252881146686e-06 -2.8741408739031748e-06  4.0988857514471223e-05 8.7794377158798486e-06 -1.1537613726230543e-06  1.3193530239459883e-04 5.3660371813621134e-06 2.3602281079987597e-06  </DataArray> 
</PointData> 
</Piece>
</UnstructuredGrid>
</VTKFile>