<?xml version="1.0"?>
<VTKFile type="UnstructuredGrid"  version="0.1"  >
<UnstructuredGrid>
<Piece  NumberOfPoints="201" NumberOfCells="657">
<Points>
<DataArray  type="Float64"  NumberOfComponents="3"  format="ascii">0.1079030131261424 -0.08966814314649076 4611.94484890841  -0.01065036156163245 0.01605027670062904 -4611.945381799717  1479.012738539995 0.01280607726104076 -4386.18533612215  2813.144929307217 -0.09141948929768411 -3731.264175810745  3871.986390168743 -0.0141036632204985 -2710.735443426226  4551.964639167049 -0.01828400224129546 -1425.162561015714  4786.386872539671 0.0304963239382196 0.1904660266602271  4552.038158702999 -0.05908708658809704 1425.360527141979  3872.205067620666 0.005994294871996853 2710.893878340909  2813.395631150931 0.02525126502330812 3731.111377501289  1478.973639105488 0.04223648331148282 4386.124228186345  1874.495143582807 -235.2431344726619 -4011.106831033126  1862.113740720988 182.7807531464201 4110.296254470642  4557.208724914477 -209.5491137204349 -683.8661727458692  3281.642502247622 -228.4949586888003 3076.234774848241  4145.089880289605 211.9234566320728 1939.956557705556  4127.835240062691 211.9223991537867 -1973.526417416956  2092.882120755097 210.5743930138515 -3958.068170345266  721.1925385737377 -210.606083109398 4387.401125165173  3259.901734502856 -210.582903738106 -3141.05905000856  2271.146654565919 -411.7218024206954 -3248.938813210212  3374.535810075572 -403.5790074949423 -2237.572658717533  2316.902902469119 -573.9209014656253 -2151.740361774523  3263.692706971904 -539.4105045678371 -1059.299565163204  2050.789735516807 -680.0566724132356 -901.0229323375283  2917.983580885676 -612.3334267021263 227.8479904715657  1534.58033516769 -725.0404070739958 411.3983898939592  2223.696519605298 -632.7041378722402 1559.371300378092  801.5934222777382 -706.3842432228514 1659.400939127155  1422.200272883806 -579.5257176975064 2738.161271115952  -55.18249523476727 -621.3990678705903 2744.638377716753  3405.944992462281 -499.629125051354 1314.571885502829  3260.117820457097 210.6258412078204 3141.128542896239  3306.268269920554 406.2894854515973 2314.405435731871  4003.418460981864 389.5747051503379 1047.445184468227  531.3241645967703 -464.3234871969433 3666.493632279856  1945.743613768401 -407.7041683753056 3455.947371270934  2270.703068980433 388.3979521663583 3349.00212194209  2191.088792942603 565.1896635920655 2348.794781357011  4566.009588070142 -204.4465659660786 683.8106408708388  4030.014636061417 -420.7586784588611 79.30692131660949  4154.424485912605 -212.1327920570854 -1920.685231943633  721.2819269226758 210.5387211443218 -4387.479545949431  3227.338078295068 205.2763009098994 -3184.076893392896  3280.644507362608 404.1517618811044 -2360.663320200218  995.2339760680798 -685.9739241350397 -1868.447093596066  -696.5710725445635 -714.5075740382915 1571.041769656031  969.1328673818184 -421.9627722206606 -3763.671932123052  3976.248142257788 394.1914133239872 -1082.353634811653  2977.371873385855 566.3091162931196 -1304.352583182312  2113.708822757372 551.4551533313693 -2526.499956351459  1671.028477852106 682.8343760315222 -1407.81866962295  737.8455938435268 642.3628178942865 -2460.4193020662  216.1935490414265 737.2983187014603 -1278.312202138187  -756.6486876529833 660.2102089580181 -2271.717684351921  -1249.411371961432 724.6231200996367 -963.9716617545378  -2199.418197449008 621.8406677687769 -1740.619428646572  -240.3740227433877 765.6477309467037 85.48459769910349  -1532.860795877542 -598.0121687575247 2530.219530719351  -2118.722623558796 -659.6888563085221 1253.33418509823  -2583.063732518529 645.6617690248756 -470.4667346328318  -3407.526445849301 507.7756443917573 -1192.58627514763  -3629.633444670817 506.7482910279558 106.6634879265024  -4252.931840906632 335.8452366346108 -744.6949409262356  -4310.773661991309 318.8605365576187 694.6815583514629  -3777.856458736074 318.4630760853366 -2120.335356090983  -3489.385252757391 469.4718260647043 1496.475474910109  -4496.155109011209 139.5701265109019 -1351.623663131906  -3981.317241803197 262.417439869984 2041.009978134475  -3826.77718492441 89.60570522980883 -2719.445500832596  -4297.32330578174 -101.4209061174279 -1941.007903106193  -2963.912032952092 394.3433630163187 2772.229747361092  -661.6465661809699 -322.7679882060388 4151.698205927535  -2889.511727232489 -513.0114703094689 2062.583901305949  -3439.072338647291 -137.3108976153365 -3104.475376753488  -3717.959797520738 -321.5388205178889 -2200.583652082704  -4598.880367495298 88.66657165157912 1166.302262593631  -1603.411492260687 516.9535924549532 -3077.160395579574  -3275.038626875564 168.9589935906288 3212.912401938692  1031.464479129854 522.3537024531436 3266.075623774554  -4433.194975222745 -263.6341767159638 -782.1608988683417  -2786.109851076266 54.90775516281154 -3736.506893741213  -2171.919532312089 300.5762647063823 3708.047973329339  -2679.586527656282 -345.66557767353 -3231.821721723331  -2809.081565861332 -512.333288797005 -2169.152474486677  -2368.473630977038 575.6553218763154 2081.412214750968  -1211.623490696694 -741.3240738090664 297.8394496576036  -2285.895963200623 50.77972408336304 4041.14490403179  -3377.840236241709 -73.34130847866646 3238.992202242277  -1621.418640926747 -513.6413415892247 -3088.051020874645  -1628.877012833219 -651.5210106076087 -1914.660740804366  -1395.717652905457 -326.8702887044774 -3967.851201892062  2435.322327634811 663.8852940784044 -130.5313794895765  -3271.287959923832 -549.5804685884034 819.23717945325  -3933.578236825348 -373.3080348424593 1431.963780662428  860.1683590781438 668.5479514453864 2146.079317603793  -310.3746410800913 604.3740318976365 2863.650294715472  -107.3680749037214 457.9840913334259 3728.831523418089  -1297.027701927647 194.4135518562398 4289.242027998762  -2165.032377672238 -420.6431861169231 3275.472912809808  1130.778153805802 510.6738782081356 -3300.832989206117  -2690.728330835131 -617.0135193273637 -1009.237267954453  -354.9476833179838 393.1022089760356 -3968.970327420845  -785.9193135548743 169.0874053658838 -4439.159118286952  -534.7454735072305 717.9860991124204 1570.921788557656  -1011.548580627193 -119.819116726287 4452.346157007372  -346.9597498736093 -632.3803283041356 -2629.931292374999  -2185.430257499572 -192.3778123944686 3943.844247407666  -3370.847493104228 -309.2981763153854 2719.423412897715  -4193.96301013647 -149.0686987626412 2042.074497432727  -4589.282840287032 -193.3632869789007 647.2721105321315  -4765.602668879182 -25.16414147285123 -400.6239486923009  -1839.834571539157 334.4382004028538 -3772.831519917872  -2791.012802437839 369.7739127611117 -3045.112567587895  -408.7609505545635 -723.3112988151664 -1514.171022836836  -163.2102271719806 571.6918780116246 -3111.157928832961  1915.538692418769 677.2419664528419 1207.938931762254  4126.48844659551 -202.7428752704401 2009.932084272121  239.3085789849745 -220.8577215904889 -4418.58817475144  759.9366057438821 -748.5914668121744 -712.907380589712  -1460.129699804444 495.4858475512771 3264.540038506013  4576.576942038308 196.5250315996624 -698.4431765116396  3065.565246757321 561.2431576243411 1188.802421893786  3614.739459669922 509.7375018428802 -52.71768648441336  -3660.193071789384 -461.6485020533635 -1167.819418086319  -1592.456636649113 722.756571818427 360.2631885586563  -2668.64213745089 626.0690966963955 845.8696586963769  -260.220276681412 -474.5480186622605 -3646.863407398177  -1115.798397360704 -87.14585787146522 -4455.670866045936  -2351.63150103714 -139.8533752072726 -3931.998743891636  1110.692397335842 745.8513282871197 -236.4681287166888  130.1474309413012 -761.9432433233977 514.5101442976426  2647.769777529382 -490.2748570107279 2512.993891680572  4584.715323661534 198.9421515469763 619.9957570576551  2094.210153862048 -209.0044556148545 3960.224799878903  -4053.364904663038 -414.6040860322444 114.0191620415027  -858.4150542303009 -511.5859402763012 3372.195975229544  2334.287117222794 376.71591010802 -3355.745814449923  -4100.723809325026 62.31006079844078 2349.861505088502  1077.202985097069 -575.9339102452814 -2905.950344915793  1173.434420531501 373.6605279672511 3888.208005225104  684.8756378595505 742.5612322758551 972.8364127023247  -2982.283620046616 486.4308606752847 -2168.07965491597  4007.02735812513 -375.3202030142427 -1206.335658350349  -73.27110449173095 202.8489209571077 4453.825082610451  3629.185214861737 -365.2296022922495 2096.190546139404  -4648.187971830293 186.1210238134604 -104.8308125634697  -2482.553468995244 -660.0289893522233 44.58955355114119  -1517.121812329542 -718.2631898147133 -766.8169792010854  4297.707181182832 344.1604191697162 -32.05982459807537  -1069.526631403474 383.3935917609291 3883.055841478363  1330.705689695629 348.3567094884878 -3924.046647068768  -1613.876228359187 57.36891344929701 -4328.99931746008  -1756.289436570201 674.0350121238931 1469.772058449033  4074.642325986626 -349.266347792781 1269.408166348855  -327.5595042149075 -761.3934322426749 -464.8734402891784  -3070.512908191169 202.949119819168 -3330.516961982159  -2098.353609922182 172.494556758781 -4019.281428197102  -1342.431775205193 621.3218528145925 2423.626234498311  -3373.172372796831 -549.2235063444999 -258.5038473327801  -0.08201030740700958 0.003396613350498738 0.05491755294181763  -1533.128355107765 -300.578730584872 128.298740511442  2316.925858944271 117.5133569477492 -21.1482101140955  -923.6927386481884 315.7993612627083 1020.302551805211  1727.494379401296 -224.2598787290795 927.926132742072  -1125.104829167277 32.88783199733995 -2060.807107390604  -2382.848561558205 59.82987021592049 1.722456416301303  455.5908991695767 356.9917872997364 -886.1327250267412  1609.717854960956 -176.4639435374575 -1386.784335070568  -1251.911317588678 -33.56768619832826 1998.790367088998  1200.743495657168 266.3146108942138 1612.071046750668  -443.5060470796167 -303.7285215568211 -1751.42125351532  396.969044973336 -437.3220665912775 8.614192912051832  955.6076015553499 116
[...]
<PointData  Vectors="Velocity"> 
<DataArray  type="Float64"  Name="Velocity"  NumberOfComponents="3" format="ascii">4.8375980216584514e-09 -4.0250685887072343e-09 1.2257905853892947e-06  -6.3710798302828525e-10 7.0699951195382194e-10 -1.2257753054128251e-06  5.0825812605128573e-07 5.5788694495255485e-10 -1.1643377701011449e-06  9.6181559805530436e-07 -4.0704313375290475e-09 -9.9729831907695666e-07  1.3250906297142375e-06 -6.3793170174482347e-10 -7.1620071453525713e-07  1.5656485500167704e-06 -7.9879496150580999e-10 -3.7849880753928403e-07  1.6538100663594226e-06 1.3420911673100526e-09 8.7042659901253149e-09  1.5689147366979401e-06 -2.6690317994337233e-09 3.8763560417620375e-07  1.3352755136643499e-06 2.8433782519945972e-10 7.2352686783947221e-07  9.7345923056677346e-07 1.1453040824437775e-09 9.9039658963766238e-07  5.0640395648589895e-07 1.8977909319563100e-09 1.1615229252361194e-06  6.7667587673560149e-07 5.9632223584832577e-08 -1.1324999394803639e-06  6.6446301620384985e-07 -4.4053200751960714e-08 1.1385370783177625e-06  1.6329910310231029e-06 4.6705236760697118e-08 -1.9000175677451030e-07  1.1982850028774758e-06 5.8634143963179551e-08 8.6750966321443863e-07  1.4883960786331541e-06 -4.8138210952559288e-08 5.4888077717444653e-07  1.4811583701899949e-06 -4.8123489761785884e-08 -5.4616409861257026e-07  7.4571996735941876e-07 -5.2746223042807301e-08 -1.1062876348008149e-06  2.5847924570145804e-07 5.1363015527145683e-08 1.2194012140687605e-06  1.1686395018330545e-06 5.2315217671936237e-08 -8.7425010120395143e-07  9.0448485863208002e-07 1.6752096335565940e-07 -1.0336181319876056e-06  1.3455799106003880e-06 1.6287099878108952e-07 -7.0779925691288804e-07  1.0614865767628528e-06 3.6647794870403696e-07 -7.9810291605727152e-07  1.4578056315901421e-06 3.0838999188061568e-07 -3.7651956248146468e-07  1.0490698365288688e-06 5.8051772597103266e-07 -3.7639961967280987e-07  1.3967485377285065e-06 4.3049613793931604e-07 9.1760508530505376e-08  8.2000966861815671e-07 6.8841144600196243e-07 1.8022334412712227e-07  1.0876818951832690e-06 4.7266782149863468e-07 6.2134384732920519e-07  4.1763926053651198e-07 6.4620710720974029e-07 7.1610384468364112e-07  6.5620487607027988e-07 3.7835176204124869e-07 1.0200776839771283e-06  -2.1819434522277105e-08 4.5591149351649922e-07 1.0770758365399145e-06  1.4716338226103812e-06 2.5548530960738837e-07 4.6029807532014316e-07  1.1787778721586950e-06 -5.0394904877174626e-08 8.7743057049596044e-07  1.3310799533937448e-06 -1.6179382935697625e-07 7.3840183358420686e-07  1.5854885582685564e-06 -1.4375065322622496e-07 3.3082379787055315e-07  2.1422691841597137e-07 2.2244025114540460e-07 1.2232025897247400e-06  7.8794651559488995e-07 1.7122515612029806e-07 1.1009970278544223e-06  8.9523965964860711e-07 -1.5098352433151723e-07 1.0460577864337092e-06  1.0034276556143107e-06 -3.5466998287418377e-07 8.7070861844406084e-07  1.6395171689862652e-06 4.5345821584758870e-08 1.9156859283740527e-07  1.6391476588737488e-06 1.7123315643060476e-07 2.7613354662575903e-08  1.4985906173193925e-06 4.7302228202274408e-08 -5.3314509734526030e-07  2.6253587977206730e-07 -5.4402551656306883e-08 -1.2229265951586272e-06  1.1518133739939490e-06 -5.2067301290241602e-08 -8.8546152651896260e-07  1.3060925882598903e-06 -1.5877135986638814e-07 -7.4449242949529965e-07  5.0920993827306466e-07 5.9716948443192595e-07 -7.8382954753837239e-07  -3.6970220638616978e-07 6.6586575198043790e-07 6.8287164988815854e-07  3.9642835211032542e-07 1.8672248161496616e-07 -1.2154096670419871e-06  1.5831009727437291e-06 -1.4665400605704548e-07 -3.3714651584322202e-07  1.3638944058738150e-06 -3.5318749544565809e-07 -4.7754813852808100e-07  9.5126803035890530e-07 -3.3042861240771478e-07 -9.1833168151301048e-07  8.5466527838062726e-07 -5.8723620800401146e-07 -5.8755552607586411e-07  3.5926559210094331e-07 -4.9908082043370946e-07 -9.8080933982132030e-07  1.1433036392546736e-07 -7.2293642539257340e-07 -5.7030917288391953e-07  -3.8061001193198729e-07 -5.4518050171203377e-07 -9.2896166981960750e-07  -6.6859390463327006e-07 -6.8696101997056253e-07 -4.2542627803396212e-07  -1.0619648757363750e-06 -4.5345979377180337e-07 -6.8606066186104394e-07  -1.3169874921664290e-07 -8.0633369441266307e-07 4.3407474918723604e-08  -7.1966909865249838e-07 4.0925604361925540e-07 9.6556801808244039e-07  -1.0585530401887300e-06 5.2543942804222402e-07 5.1107617321687573e-07  -1.2768606061979745e-06 -4.9590434983882084e-07 -1.8941318989644959e-07  -1.4750241178633699e-06 -2.6622199948050470e-07 -4.1911556951366913e-07  -1.5683052956794296e-06 -2.6113616201079726e-07 3.4772762564912802e-08  -1.6214514634867698e-06 -1.0503473004561278e-07 -2.2689996452887321e-07  -1.6230609303084675e-06 -9.6228512525640335e-08 2.0423141051057365e-07  -1.4237228859484541e-06 -9.3351682322698045e-08 -6.3586337524356236e-07  -1.4620941030650189e-06 -2.1711758535034535e-07 5.0447028024471298e-07  -1.5711071474022312e-06 -2.8032743484714142e-08 -3.7819514710910294e-07  -1.4540234358429182e-06 -6.5953922537861545e-08 5.9091188550157252e-07  -1.3180994412911772e-06 -1.7693140966776585e-08 -7.3961353609848151e-07  -1.4844714067653567e-06 1.7952630231447832e-08 -5.2822078014606106e-07  -1.1779755773022224e-06 -1.5434039980617045e-07 8.7793350429690260e-07  -2.5184664689945198e-07 1.0727322489597989e-07 1.2325502831214419e-06  -1.2601037326706000e-06 2.7900768158715859e-07 7.2730187930306727e-07  -1.1990900612918688e-06 2.7906042657709664e-08 -8.5510003612533451e-07  -1.4081033260104296e-06 9.8655354163636131e-08 -6.5962444115949793e-07  -1.5854276301012255e-06 -1.3750910653078613e-08 3.1864812407389704e-07  -7.0544545164697168e-07 -2.8825306208629841e-07 -1.0859586748169348e-06  -1.1553652448220270e-06 -4.0444465297645585e-08 8.8425951718934188e-07  4.5137202887764466e-07 -2.9162096673107437e-07 1.1484856567933056e-06  -1.6234778361871482e-06 7.0281564347292654e-08 -2.3074457782587848e-07  -9.6286062824126678e-07 -8.2598254141070440e-09 -1.0123904931476391e-06  -8.0889897789040050e-07 -9.4145112596440906e-08 1.0945145958591838e-06  -1.0308565980804688e-06 1.1678979136036598e-07 -9.8714067883223233e-07  -1.2308291626040599e-06 2.7834690552011476e-07 -7.6404605921626192e-07  -1.0863963398942384e-06 -3.7039988684117465e-07 7.7439509545676320e-07  -6.6080119084694800e-07 7.3579362606130239e-07 1.2933685713247688e-07  -7.8542124089517618e-07 -8.1922147201150858e-09 1.0870805385384830e-06  -1.1696915736494814e-06 1.2813397267541962e-08 8.6914969008392827e-07  -7.1054554535924632e-07 2.8652021177215987e-07 -1.0899541404676632e-06  -8.0856996256376148e-07 5.1215514333084478e-07 -7.7267522010764204e-07  -5.4563231380230635e-07 1.0934105086656084e-07 -1.1908299016048764e-06  1.2288791773471702e-06 -5.4501945707621669e-07 -5.4018857561960018e-08  -1.4770896143528752e-06 3.2956057952988515e-07 2.9410619693547817e-07  -1.5338180069914412e-06 1.2673412907822055e-07 4.4512342667201020e-07  4.3406315072256077e-07 -5.5300954916929886e-07 8.8467110950567898e-07  -1.5067235116921478e-07 -4.3578768290199466e-07 1.1074321519290971e-06  -4.5129746565723756e-08 -2.1313800479859550e-07 1.2322790017669422e-06  -4.6764650318079442e-07 -4.9098258542150350e-08 1.1845838210802563e-06  -8.7047229284144956e-07 1.7919416891109064e-07 1.0580979431452959e-06  4.8922142607764488e-07 -2.8507997917773106e-07 -1.1539321128485393e-06  -1.2910019988902573e-06 4.4457650363541674e-07 -3.9217406234159416e-07  -1.4579395378763461e-07 -1.5885194235833941e-07 -1.2408304936196152e-06  -2.9491019021190487e-07 -4.4035669328478532e-08 -1.2188463934116325e-06  -2.8316638342069958e-07 -6.7346691669668411e-07 6.8849707671067466e-07  -3.6257152993579632e-07 2.4851912835950793e-08 1.1996905088168199e-06  -1.6928232474488507e-07 4.7861178055069637e-07 -1.0405360716571039e-06  -7.7323384898100130e-07 4.7907127300772616e-08 1.0992390783720265e-06  -1.2697005890720368e-06 9.5257707914255508e-08 8.0216134715199264e-07  -1.4638847235289704e-06 2.7656528050870604e-08 5.6344892431919854e-07  -1.6232991842083885e-06 4.2902244113855516e-08 1.7904497172436624e-07  -1.6374674849762254e-06 4.9720462253971865e-09 -1.0671149407475287e-07  -7.0477204881418855e-07 -1.1505859209372252e-07 -1.1463643171878882e-06  -1.0939772313949959e-06 -1.3407756059749207e-07 -9.5009531869998493e-07  -2.2007229053337067e-07 6.8453683983314826e-07 -6.6330268013939478e-07  -7.4117852761394801e-08 -3.6412792302755520e-07 -1.1516923912216401e-06  9.7638793063353695e-07 -5.6698445452829294e-07 5.0370745748708544e-07  1.4822441900991212e-06 4.6031965599090042e-08 5.7411839446982520e-07  8.9344013665639469e-08 6.1352246425554102e-08 -1.2379146696054121e-06  4.1608877015345002e-07 7.5390636377301158e-07 -3.2127398886397411e-07  -6.2375860934544169e-07 -2.5910328943130637e-07 1.1258548809858268e-06  1.6349048374767680e-06 -4.1297811649962652e-08 -1.9389129188476299e-07  1.3998510050130331e-06 -3.4650281892167369e-07 4.3873671824757929e-07  1.5747466016756590e-06 -2.6629593647470752e-07 -1.4414873569435860e-08  -1.5302718269814101e-06 2.1221405465114354e-07 -3.9465770349965986e-07  -8.5227461201242067e-07 -6.7900805721392228e-07 1.5870514546996849e-07  -1.2896566511125966e-06 -4.6185529663156504e-07 3.3721013275443085e-07  -1.1860534490752054e-07 2.3398310707760866e-07 -1.2264651710691662e-06  -4.0606790205385128e-07 1.9001694632724462e-08 -1.1983249499992882e-06  -8.2580771123518316e-07 3.0891791747166022e-08 -1.0789071143146420e-06  6.0900438214450935e-07 -7.4491792799210934e-07 -1.0641939360276852e-07  7.1110974212223621e-08 7.9169475052365810e-07 2.3835703399598187e-07  1.1309910518301966e-06 2.4854622307871710e-07 8.5653450240314383e-07  1.6397561553915918e-06 -4.6214613962396803e-08 1.7653566283982261e-07  7.5304189096147763e-07 5.4841443129215320e-08 1.1035868967753043e-06  -1.6292804264012515e-06 1.6274706092779505e-07 3.7075677303116418e-08  -3.7293501567342404e-07 2.7621528789762164e-07 1.1712326101734739e-06  9.0799688482489802e-07 -1.3862966314225954e-07 -1.0408019690429786e-06  -1.4080005521432767e-06 -1.0730726915178264e-08 6.3403038379659804e-07  4.9524040833968094e-07 3.7730495036300876e-07 -1.0806596014367141e-06  4.5258238876512102e-07 -1.4239306276010789e-07 1.1986981377956868e-06  3.7418489126703485e-07 -7.3922069173499171e-07 4.3993615597847624e-07  -1.2771972543863745e-06 -2.4706837355144129e-07 -7.4365838962320905e-07  1.5734455861836893e-06 1.3144202609336427e-07 -3.6993107172141971e-07  -2.6553781525095623e-08 -5.6387907910871003e-08 1.2353852782856773e-06  1.4170584293856630e-06 1.3031389943484047e-07 6.4973346873688337e-07  -1.6501847777380647e-06 -4.0497887784974810e-08 -2.4924916287563870e-08  -1.2459205549839343e-06 5.2544937964413939e-07 1.7009505056802376e-08  -8.0922414987835914e-07 6.6928248941361444e-07 -3.3223059634178668e-07  1.6547781802158844e-06 -1.1236167360018897e-07 -7.1746427651891751e-09  -4.2365209163708633e-07 -1.4447980542233440e-07 1.2052602785745675e-06  5.1886138908509530e-07 -1.2282651673273253e-07 -1.1925500665601221e-06  -5.6731289028494116e-07 -1.2579956181307616e-08 -1.1639925896382348e-06  -8.9519862035952736e-07 -5.6253621085929647e-07 6.1584511897932792e-07  1.5712720952353775e-06 1.1368463862022333e-07 3.9004362203244568e-07  -1.8342172875927298e-07 7.8723880708556389e-07 -2.1332736952083095e-07  -1.1017820610359542e-06 -4.7430538877822874e-08 -9.3838915116747410e-07  -7.4681127217200805e-07 -3.9496496702733166e-08 -1.1177603382448669e-06  -6.4570822923096345e-07 -4.4795746190336937e-07 9.4643651069252952e-07  -1.5093249700352661e-06 3.1566525213008912e-07 -9.3947489726218177e-08  -3.7754686951166958e-09 1.2099601267628893e-10 2.4771413077469331e-09  -8.4256104110466205e-07 2.8926958679110037e-07 5.8943339159477616e-08  1.2112318419046457e-06 -9.9643656883991018e-08 -8.5154916486300161e-09  -5.1443187891593931e-07 -3.1030239041444762e-07 4.6496851871717855e-07  9.2653523814351657e-07 2.0233401655966547e-07 4.0849278857228969e-07  -5.8776577131096013e-07 -2.6882452662492345e-08 -8.7542447763100956e-07  -1.2395248259268123e-06 -4.9855283343159510e-08 1.4723295452607593e-09  2.5291018599863770e-07 -3.6081021760232445e-07 -4.1163817264742496e-07  8.5239645750887277e-07 1.5349083353837878e-07 -6.0103475992536394e-07  -6.5308204399420399e-07 2.7459316971579086e-08 8.4935695697506409e-07  6.3804648416200948e-07 -2.3779646240045161e-07 7.0412592461082275e-07  -2.4055264675240442e-07 2.7977103817943618e-07 -7.7802751263097100e-07  2.2765385637520022e-07 4.6410308563488635e-07 6.0689100251928790e-09  4.8797047542293813e-07 -9.6545363957070986e-08 -9.5220068591839654e-07  -2.0305316113953530e-07 3.1733700874264308e-07 7.7141930415024233e-07  4.2600632408758992e-07 3.2483437484882486e-08 1.0093892290367248e-06  -8.7172753650108182e-07 -3.0833376232508415e-07 -3.8441864762247044e-07  -1.1948345616689431e-06 1.2424843171279037e-07 -5.3303939477075688e-07  1.1898905860953098e-06 -1.3090662980118358e-08 6.5892541547943910e-07  -1.6230728418993102e-07 -1.6056324063192507e-07 1.0668398062352720e-06  2.8122772250114178e-07 -4.8412480325878903e-07 3.1154522055141319e-07  1.0489363489998427e-06 -2.2525318962503086e-07 -5.7896799264645726e-07  1.0888842575082912e-06 -3.4858388656036865e-07 5.8620576660619514e-08  -1.1630905566511635e-06 -1.2907316639760590e-07 6.2863520789671379e-07  1.4270848145336418e-06 1.0492585900925361e-07 -9.7202868277505501e-08  -2.9662006458088798e-07 -2.5610565720432182e-07 -9.6734347584585291e-07  -1.3586639149850669e-06 1.1443981806654113e-07 3.9911367567315807e-07  1.3019008796794942e-06 -1.7788976099363784e-08 -5.8474624709255099e-07  1.0710632752700206e-06 3.4149150959502052e-07 -1.6555851999736886e-07  -1.2520953634745261e-06 -9.7276160722131800e-08 -6.1324481195662454e-07  2.8906244213401569e-07 1.1138139398761688e-07 -1.1119845137428563e-06  -5.2377210404575968e-07 4.7741939085447340e-07 -3.5122683627286591e-07  -5.0631909010427720e-07 5.0821301134344035e-07 3.2952317746863695e-07  5.7797874663411649e-07 4.1395790059659600e-07 6.3185444880774361e-07  -1.2075094639673063e-06 -3.1589502710810504e-07 2.5372966712038354e-07  4.8855840966030716e-07 4.0784043463847286e-07 -6.4485815334115426e-07  -3.6720093753187344e-07 -5.3076821091274327e-07 -1.5958184779682394e-07  -7.5733605371526475e-07 1.3296308841260494e-07 -1.0058793144019153e-06  1.3233936966039001e-06 -1.7561430653425809e-07 4.6276959803564466e-07  2.0053171333106979e-07 -2.4513049765302511e-07 1.8044057383254390e-07  5.7585809303380835e-07 -1.2270051506107793e-07 -3.7637198933063565e-07  </DataArray> 
</PointData> 
</Piece>
</UnstructuredGrid>
</VTKFile>