<?xml version="1.0"?>
<VTKFile type="UnstructuredGrid"  version="0.1"  >
<UnstructuredGrid>
<Piece  NumberOfPoints="201" NumberOfCells="657">
<Points>
<DataArray  type="Float64"  NumberOfComponents="3"  format="ascii">-0.1437172546858712 4.448795887380126 1656.663581741072  -0.3894315711741684 5.667605709507395 -1656.070083049506  88.38571336337051 7.535880535597999 -1571.630853501575  163.0650217911314 7.819421805543276 -1330.478424517609  214.5455515572623 -6.19107113835608 -960.259802672349  242.5260836070801 -15.49730497233644 -502.846055404101  253.9097129390708 -16.29660567574369 -0.1683121998540369  242.4320722315312 -2.176843658415834 502.4951193389786  213.8569916823257 6.03440173750607 956.0021812221394  162.374959791907 5.240359345950667 1326.040089713387  87.88224970441549 4.877546106576558 1570.037432735535  108.3314468244998 -1915.490976325532 -1489.59979533608  121.6224706226833 1498.260875172773 1500.393181911475  251.0072427815378 -1956.588702374862 -250.1320944030396  190.9602218284835 -1964.229547046029 1140.031365269827  250.4231470102562 1921.026253476304 707.9630996982726  250.8522377653482 1927.233696030101 -723.013585929216  139.5593484312506 1739.143405974801 -1459.656786485732  37.23292215877115 -1680.041222020511 1622.669582448706  187.2439848348397 -1822.342108183218 -1150.944907585201  144.1927032592937 -3286.439279182912 -1295.237196244766  213.8686394596971 -3375.856498197326 -886.8226939400921  168.4535985041004 -4427.976354010127 -938.7674299899618  233.2415559655272 -4352.683587914858 -454.8537747480749  165.5242261394574 -5100.843330239134 -420.7696684920599  225.565585888294 -4791.337396020111 101.7057896483503  126.4308387627785 -5329.36602121434 196.1523325554767  173.1923874482614 -4810.883833349209 705.3228456109596  53.92264390035444 -5147.28001023881 783.7483106574117  99.61730583233621 -4366.015017380333 1194.267531903896  -25.89713204134655 -4581.188874331946 1225.648535540773  231.4320363759276 -4104.265915173364 549.7582338427462  204.4849187648986 1819.975813735954 1150.359731673997  245.8506085711844 3385.348089746278 922.8281603764963  284.569744830912 3386.075898658081 412.8320406732063  23.51091759968629 -3558.566301674088 1493.53899521721  120.689764516882 -3227.557462613607 1373.490673288863  174.7539370093286 3117.848805638692 1323.329546740251  197.6764164287849 4345.16401697892 1019.606092159378  250.5490523626974 -1904.646031509618 249.8084861765547  252.6793105022433 -3631.909861917032 31.4564738741612  231.9964626687908 -1926.083607247826 -704.3885813725176  54.26240087439266 1687.769720606223 -1621.272382492325  203.9972290484965 1778.751595198235 -1166.814549771874  242.9183211541665 3360.175214038316 -940.75819853523  69.81905621130053 -5028.942473345844 -871.3465879089924  -88.66744021202406 -5194.651527007003 746.2593009269034  54.42757469198412 -3258.520165427297 -1508.498865820575  283.0785713800846 3421.499247622252 -429.1130492531436  261.0707620113728 4475.148948759494 -569.4736169692135  188.6270632073576 4242.73166585622 -1089.416659003839  175.3260693292665 5060.352901593277 -657.1210557790382  84.74665439272334 4727.477189961828 -1114.79116570532  43.8598475325994 5318.994858005839 -616.1081716501878  -47.47247207969011 4844.625694894818 -1040.56590544306  -97.6761864955598 5287.34382996487 -462.4131930501075  -167.9078123936931 4726.539936969913 -783.7374440726194  -1.94445535634812 5501.461888920916 41.18413871089494  -150.9238362860438 -4500.250851901706 1116.095700297655  -213.9091342578372 -4974.205897709106 576.8855683553229  -206.1379680129918 4948.314163269029 -216.6565746429576  -237.7248480372573 4154.84080103783 -503.8588636070681  -254.0907772730461 4191.532771877457 44.17009757970028  -250.9700206414473 2997.123215430458 -285.0069558053411  -251.8232782397366 2863.873048875148 264.2974980862271  -225.2633811098758 2772.217576680525 -810.7313551586604  -234.1483567739822 3887.858778373061 616.7905365851146  -238.5810513558269 1313.361807027851 -484.5749688513101  -228.5602812989805 2349.347407259232 759.3295221496276  -210.3635441885796 810.7008995378541 -966.003466630859  -243.0920503816197 -937.4300940554893 -692.5668406247599  -189.5495533657741 3242.236583522826 1099.699845391764  -57.5667979542811 -2526.690887700513 1595.205163964305  -239.1056140910682 -4103.178949554058 866.5354928414318  -205.6771806446872 -1205.827801036458 -1117.592471903708  -251.4331937434353 -2788.221605679931 -841.817198930067  -243.0649886185736 829.4825912289566 411.195854648576  -106.1285638595981 3956.075478979797 -1298.81014826072  -185.3786609881269 1462.193224104114 1163.635028231973  99.90240677531214 3951.546825257751 1380.805680714702  -276.1224478171024 -2418.065169251828 -291.4031470864016  -160.3612099183832 474.1723154442636 -1333.819347184849  -128.0929102369056 2462.258931760871 1404.24896101737  -193.7406092152405 -2836.255731790323 -1251.844914704051  -233.3268054178687 -4079.180705199243 -913.0286469595283  -173.2731405462219 4447.992966831286 910.6107348232862  -141.4448870756843 -5405.563954931186 143.1141949119854  -133.6320309447564 428.2129754729265 1445.830396024812  -196.0077150070173 -645.9406705122528 1151.711654320641  -143.8945943628359 -3936.51398419619 -1297.059348069265  -166.8730570248975 -4860.252113949013 -875.1961333839056  -106.8335938117105 -2588.612913434665 -1525.60570404518  240.9524443910059 5042.855644026519 -61.06562801184191  -277.0241637961473 -4441.039010622185 354.4071571126399  -274.2379633860638 -3232.969309894395 560.3849000095183  97.86125909403317 4907.735154037649 989.6651085587405  -6.710620317619603 4471.445719735387 1266.611711156201  9.498065137962453 3493.158980861422 1524.891458909409  -72.34765857306043 1574.188363129261 1573.333940481124  -167.6960220185819 -3346.583391833016 1308.970624228675  105.8250802869848 3883.755458676638 -1386.724259253151  -249.3062063560275 -4795.608680833379 -454.830387574118  -10.29206655741688 3031.434631581228 -1571.67135163766  -42.70527671612381 1363.341904771764 -1621.519524918627  -29.76697182620055 5208.215227350683 748.0167983674637  -67.31980621992825 -985.3637417939465 1607.001661856144  -51.20832091681998 -4658.262646074988 -1182.370367640003  -144.1938137709456 -1590.333710472127 1448.073705891098  -228.3112576896883 -2630.87667068354 1037.025840116388  -244.4956455650294 -1378.289138315663 734.9361558693083  -268.942078799952 -1819.451115933599 237.5940778617031  -254.1329052239411 -257.5931534217187 -140.9629272682113  -110.4493357574368 2676.810811844573 -1453.748920956542  -173.4588367300881 3027.074885370263 -1192.270843568927  -61.12974165855106 -5242.526441795834 -723.482076972491  6.154592816691127 4254.414304674528 -1351.645803830185  196.057450615098 5053.622037964172 562.8091114624508  231.8584298567176 -1837.81568444371 736.2423069418003  6.717272349445369 -1752.238885028584 -1637.231964964165  53.28977431656207 -5423.187703301168 -347.1797262564715  -94.72798287462348 3799.382661180652 1360.996088763028  269.0645722181333 1843.17781757547 -252.5923151007781  266.4713253066167 4460.280065226808 517.7258435198999  293.4986293295472 4211.758076453355 -22.04764447699763  -280.812007059887 -3857.881870942129 -477.8760856964514  -130.6992762199569 5311.32621793725 172.6179585666699  -209.2452639482215 4828.02170318656 382.6383922043004  -36.29003312469298 -3603.231763892575 -1499.470884239681  -71.85540029259791 -709.5953292597763 -1606.057944599107  -147.5602962034064 -1167.620318951534 -1422.094405830513  131.3932169375378 5417.706986357945 -116.6341047369858  -8.654391248400737 -5486.764883788685 251.1427527123431  177.3339814733375 -3906.470960652119 1040.335038762725  269.2081582581781 1863.387893018033 223.7145209346608  122.9298174823778 -1714.612233211212 1462.618113468263  -291.349953583913 -3595.704976983277 45.71414095121332  -83.87227348226165 -3885.830859552158 1409.666925981863  176.4150723719238 3024.516996385012 -1319.3532297787  -223.0746290493498 574.9178580236644 830.2534057870357  68.89905855404248 -4313.682636656258 -1263.545881597097  97.47994083315345 2931.60528042726 1525.711419929402  88.49174579664069 5366.700159048822 470.4849411443212  -203.6425380905018 3918.022102650326 -902.5806164287553  244.6440960933367 -3263.904263047088 -472.3093950967059  3.28395356601389 1625.091702842443 1637.709071533331  222.6767755823143 -3120.157646267024 815.8973811040388  -251.7594275082679 1755.852902565449 -38.83418575451026  -244.5205259431277 -5036.615249583767 19.82169580669829  -167.7896696965099 -5285.755518930283 -366.8794082107552  288.4337781139814 3072.391719240561 -12.80761902754036  -60.35840900915225 2998.667262929403 1529.879384242099  105.9616167700965 2742.354737663628 -1523.582466209933  -95.82571020399584 482.2818557751999 -1552.634533523746  -137.9752029637233 5013.820083567172 682.6458033302522  244.98332773476 -3067.934340019092 489.7153812174384  -54.64955909340582 -5487.675191897578 -227.934663812718  -177.3705417309249 1737.297700211406 -1222.126253890847  -121.7420365257555 1428.311392254037 -1467.156687276968  -94.75421836040266 4632.200748185585 1085.279681049411  -285.9686975136041 -4442.211593303487 -113.005552432407  -1.081311053709329 -10.5023531485524 -1.011643075721743  -107.8350200840579 -2771.67152942895 49.87519152579144  130.4180555301 1151.811366810122 -11.17654383686862  -42.1395766606032 2883.558669779677 388.0675710825242  88.76847782091285 -2111.225803068015 339.6873802353052  -59.52906471593145 297.9102853222984 -725.5358238496225  -121.3751654606257 590.6674978200667 -0.6015867235600701  45.42505347203127 3206.596587010618 -344.4894602021365  82.13354242623323 -1671.854883805006 -503.2177896146135  -69.14869002317451 -322.3820909351089 704.5365062082855  83.99051237147755 2444.018365972304 601.2229781740151  -41.40997798918611 -2737.107982370954 -663.5164437711057  8.387261818135624 -3810.707810907953 3.584142396173302  58.84748738747928 1090.360240393022 -815.6644080654985  -39.0
[...]
<PointData  Vectors="Velocity"> 
<DataArray  type="Float64"  Name="Velocity"  NumberOfComponents="3" format="ascii">2.6076472706169434e-07 1.6175686481627437e-05 -1.0609925572381267e-03  -4.1193399615819378e-07 -6.7070284635969295e-06 1.0623521544772003e-03  -6.0327570708238772e-05 -4.2885074612237119e-06 1.0076744090479646e-03  -1.1214761078417070e-04 -7.3509169965668341e-06 8.4897088923874199e-04  -1.5188173516163261e-04 -4.1087959129017624e-05 6.1104877052835737e-04  -1.7501810119796443e-04 -7.0232063459024346e-05 3.1715676124258700e-04  -1.7944547515211272e-04 -6.3244068304601415e-05 1.1724209817173303e-07  -1.7342211961389548e-04 -1.6817757244687567e-05 -3.1899518416230344e-04  -1.5081328294139898e-04 5.3306110475158975e-06 -6.1752362932744490e-04  -1.1370115579459663e-04 1.0693055966818806e-05 -8.5648046486045066e-04  -6.1720154218200248e-05 1.5547533193760532e-05 -1.0104803466028777e-03  -1.0323228003993844e-04 -2.4031828751378578e-03 8.3054814796137521e-04  -4.4215250025508838e-05 1.8923752355731844e-03 -8.9991907274244607e-04  -1.8841945078194522e-04 -2.4749944022353660e-03 1.3912428337195290e-04  -1.4821379638365006e-04 -2.4582688307959607e-03 -6.1785598467338596e-04  -1.1057791185626970e-04 2.4318367941592585e-03 -4.0172570221847658e-04  -1.0697997683381186e-04 2.4562851540232133e-03 4.0194134712120895e-04  -4.5287423246492624e-05 2.2136338356696663e-03 8.4033855671636251e-04  -5.8272589185074536e-05 -2.1240750838926120e-03 -9.2536007921556506e-04  -1.4682321406462079e-04 -2.3131623633230892e-03 6.5547797224401708e-04  -1.1755212840582275e-04 -3.7216916890349732e-03 5.3592507927132456e-04  -1.4700118567345687e-04 -3.8352451056894448e-03 3.6433064517232112e-04  -1.0183040144181453e-04 -4.4692217296288363e-03 2.4076391024843203e-04  -1.2095572916318221e-04 -4.4974162823397243e-03 1.2262498950341231e-04  -7.6610684908211133e-05 -4.7517959949253058e-03 6.2405598174487519e-05  -9.5331430598434770e-05 -4.6910571582105647e-03 -2.2384388915826791e-05  -6.5559742620474189e-05 -4.7983807900902585e-03 -2.5806980796615084e-05  -8.5990632832472319e-05 -4.6518507220933130e-03 -1.4051280736567860e-04  -7.1103967430598820e-05 -4.7150553014308457e-03 -1.1252409928115668e-04  -8.4927456153023145e-05 -4.4147633922427812e-03 -3.1701726303199300e-04  -6.7791118533373535e-05 -4.4951665118984716e-03 -2.8403758626597539e-04  -1.3611368826057344e-04 -4.3858431975031314e-03 -1.7202446086254155e-04  -8.5337811693103830e-05 2.3009291793915326e-03 -6.6304902171393509e-04  -2.6837913946300799e-05 3.8556591950028789e-03 -3.6695067116279722e-04  -4.4956951282931057e-05 3.8978010863704149e-03 -1.6716675451083050e-04  -7.1155841081063363e-05 -3.9208504927878435e-03 -5.7684536891917612e-04  -1.0998259620920551e-04 -3.6651237972927029e-03 -5.8079330216711297e-04  -8.1245448410639250e-06 3.6027726515948568e-03 -5.7006913173730171e-04  3.2545708000037220e-05 4.4120245131573470e-03 -2.6559373027685955e-04  -1.8966897233308261e-04 -2.4090120966369683e-03 -1.3492516261092634e-04  -1.6451809649828392e-04 -4.0792902702684094e-03 -1.0907855755818579e-05  -1.7571818234058333e-04 -2.4423791791645497e-03 3.8994497315559981e-04  4.6059956508754820e-06 2.1431254522375934e-03 9.4205981018292539e-04  -8.2734309131660060e-05 2.2767474991058508e-03 6.6857657502713197e-04  -2.9140320394286211e-05 3.8276799338779295e-03 3.7590936667780109e-04  -7.4280840944664748e-05 -4.6773371448089228e-03 1.4176559720398320e-04  -6.9674919345916680e-05 -4.7288993609081427e-03 -1.0118655863085516e-04  -8.1405412989079577e-05 -3.6704411761386119e-03 6.2388891684331195e-04  -4.3414725707504799e-05 3.9351400163027458e-03 1.6816917735450537e-04  2.6566343751724337e-05 4.5309901626345373e-03 1.3742374236912910e-04  2.8803508766747625e-05 4.3654574263109775e-03 2.9929959177340257e-04  6.2886741293457357e-05 4.6978301542602921e-03 1.0007271003742008e-04  5.9366519336175193e-05 4.5513352528622261e-03 2.2662306643992985e-04  7.0374627992945163e-05 4.7461011335814098e-03 6.9706824398947707e-05  7.3104291947075940e-05 4.5970563602132824e-03 1.9369397717401658e-04  6.9812805327275178e-05 4.7560307180747182e-03 5.4754705161206904e-05  8.9376958016832944e-05 4.6023293577713512e-03 1.5852386763127210e-04  6.8502660859525349e-05 4.7970227436981479e-03 -3.2406078682140051e-06  -4.9219128790388284e-05 -4.4877839976043086e-03 -2.7465799029380229e-04  -6.1251212219931420e-05 -4.7099634795053366e-03 -1.0017588645403074e-04  8.4244624381611506e-05 4.7127097295363678e-03 3.5924990055340510e-05  1.2662931570061982e-04 4.4030955702563587e-03 1.4488699787759161e-04  1.2653721680146686e-04 4.4311666436455347e-03 -1.4024247009587345e-05  1.7710143359179361e-04 3.5719822320864039e-03 1.3072131000934432e-04  1.7929292136768934e-04 3.4429522836217754e-03 -1.2543695249989049e-04  1.6428038880552382e-04 3.3297617872353976e-03 3.8312941175284516e-04  1.3666497619765070e-04 4.2297855352495129e-03 -2.0426612965271108e-04  1.9283397956598191e-04 1.7217727843858840e-03 2.8891710336451131e-04  1.7450804331342086e-04 2.9292721234546659e-03 -4.0009857871356230e-04  1.6387046833796088e-04 1.0523106808923010e-03 6.1033262413494327e-04  1.3961739561691334e-04 -1.2364154392842980e-03 4.2273248137712413e-04  1.3374928088804563e-04 3.7249314413208097e-03 -4.5531338127076002e-04  -2.4051492802586238e-05 -3.0114680619646164e-03 -7.8561981654422892e-04  -7.6028222313768443e-06 -4.3432265432539292e-03 -2.7159060124989578e-04  1.0451312172740903e-04 -1.5726528065209443e-03 6.7643567600188758e-04  6.2263124551523199e-05 -3.3368432182485654e-03 3.9872780354029922e-04  1.8796079377515705e-04 1.0632896177902285e-03 -2.6232494916615120e-04  9.5264837659267377e-05 4.1795809210138941e-03 4.1057676371697660e-04  1.5049541168797587e-04 1.8608980200392410e-03 -6.9813832746064308e-04  4.3178833088671303e-05 4.1610574269700237e-03 -4.3433777737415813e-04  9.7474911531145292e-05 -2.9815816255924260e-03 1.5157869375653812e-04  1.1951077479564453e-04 6.1001845848267201e-04 8.5141291022199105e-04  1.1841991875239571e-04 3.0127675641198771e-03 -7.2863281435432367e-04  3.0553296335409841e-05 -3.3472907328137968e-03 5.8068269474119481e-04  -8.3910617702103641e-06 -4.3041280112447152e-03 2.8382591565005179e-04  9.9328041664592764e-05 4.4848986548629097e-03 -2.2316266525521106e-04  -7.4286105637232753e-05 -4.8138089221340793e-03 -1.7774354505331035e-05  9.9410028779793366e-05 5.6032747815688616e-04 -9.2297556668555160e-04  1.1714754250877339e-04 -8.6781096254884141e-04 -7.2854374054609331e-04  -2.8475870179859668e-05 -4.1610557588470636e-03 4.2434299279648827e-04  -5.7161299593062500e-05 -4.6374757202421223e-03 1.6541141081001672e-04  -9.1393559884591307e-07 -3.0929931009880786e-03 7.4812368923491909e-04  5.8848678621247612e-05 4.7357724790155651e-03 9.5229751775347431e-06  -1.6111785783016721e-05 -4.5789284656425006e-03 -9.1660426433613844e-05  5.4041494911680085e-05 -3.7350339152510963e-03 -2.3629425055816928e-04  6.1182969748010583e-05 4.6170316190553042e-03 -1.7079012273250147e-04  6.9455741825804525e-05 4.4254809775582400e-03 -3.0398738567435766e-04  6.1967442977973501e-05 3.8608911230134631e-03 -5.7545356036840562e-04  7.8719130217343801e-05 1.9776954694044236e-03 -9.3380509430501693e-04  5.0455747382524735e-06 -3.7763389675626387e-03 -5.3737383664659852e-04  3.7849067235873698e-05 4.1317035392856522e-03 4.5335142554143429e-04  -4.1004934331917705e-05 -4.6956952162698498e-03 8.9454891928936742e-05  6.2869753735620939e-05 3.4886548374080490e-03 6.8876552990079624e-04  5.5841805127377585e-05 1.7522146732586062e-03 9.8297202703010876e-04  6.9462605439679382e-05 4.7139315727398965e-03 -9.4905823387289123e-05  2.0589021143252980e-05 -1.2951749451859831e-03 -1.0025785975590023e-03  -6.4324239624989179e-05 -4.5235121599049299e-03 2.6197067432288024e-04  4.7951292607827435e-05 -2.0384679371263292e-03 -8.3303661512243899e-04  5.9727572873789123e-05 -3.1566529281131317e-03 -5.0121831135190801e-04  1.2338244112345618e-04 -1.8078888317770798e-03 -4.3125773375555669e-04  1.2284495235322573e-04 -2.3359461643677124e-03 -1.2549734211804190e-04  1.7198006239658504e-04 -3.8320861616380174e-04 8.9406445846085979e-05  1.0590418781810793e-04 3.1946720208331394e-03 7.0442159646215657e-04  1.3328643913259309e-04 3.5263866988050649e-03 5.2653756411277883e-04  -6.8810910106823156e-05 -4.7422671127111717e-03 9.2203211164747727e-05  6.7367580857523695e-05 4.3303818867462818e-03 3.6929475344545614e-04  6.0014907473079779e-05 4.7057496048241061e-03 -8.5409428693200752e-05  -1.7566172954782384e-04 -2.3224460920895154e-03 -4.0507245943108365e-04  -4.0808516298542926e-05 -2.2079668694129410e-03 9.3368220238210914e-04  -6.5844030399005689e-05 -4.8070817006157663e-03 3.2426839256063189e-05  9.1269348862080984e-05 4.0784056344086717e-03 -4.5910627893626707e-04  -1.2351679612634256e-04 2.3668869199044130e-03 1.4416956565577172e-04  2.4912708931115321e-05 4.5291339404922555e-03 -1.2603322658744095e-04  4.2156583756835620e-06 4.4454328748592944e-03 5.9485227617520913e-06  1.8849698780009027e-05 -4.1995791532607749e-03 1.6616121953377992e-04  6.9374091106463577e-05 4.7780195360136038e-03 -1.9188355339922136e-05  8.9655501111231809e-05 4.6650787408611749e-03 -7.1898089718414252e-05  -5.2676169338086449e-05 -3.9210827525542943e-03 5.5470866377872925e-04  3.0389036814564072e-05 -9.3754764176388688e-04 1.0081457260426774e-03  6.7636854531463400e-05 -1.5180675951820049e-03 8.6721666344543669e-04  7.2925439412569655e-05 4.7912894479727221e-03 1.1104947000974994e-05  -6.8468546771919159e-05 -4.8131384840436010e-03 -2.5384895954141288e-05  -1.2383455650068697e-04 -4.2148561129652469e-03 -3.5714703450939088e-04  -1.2406180140232877e-04 2.3806927880859604e-03 -1.3178873670090501e-04  -1.0683809869296460e-04 -2.1664828638964387e-03 -8.2549414764114212e-04  4.1748143267472424e-05 -4.0556000873015153e-03 -1.5860820870849549e-05  -4.2111205310068118e-05 -4.1418254052881720e-03 -4.8097693502544676e-04  -1.3537864416157019e-05 3.5061344653210921e-03 5.8014187114022230e-04  1.6728779037385641e-04 7.4860792133980391e-04 -5.3105727701268203e-04  -8.3184480725857337e-05 -4.3614084336918661e-03 3.4472924785838345e-04  1.7743412057301982e-05 3.4254667121403821e-03 -6.9305498990318668e-04  6.9782737010897899e-05 4.7625318765895895e-03 -4.9246320039987834e-05  1.2499457102389903e-04 4.2168764685177511e-03 2.9226358321748750e-04  -1.6753245440765595e-04 -3.7670984656835507e-03 2.0125710299196553e-04  3.2159942032218685e-05 2.0363192083025488e-03 -9.6952635803091347e-04  -1.5884332411881925e-04 -3.6306792278427333e-03 -3.5751395232542013e-04  1.9535922185876490e-04 2.2548833931648683e-03 1.8569267487412870e-05  -5.8011683161992597e-05 -4.7637186275445026e-03 -5.9825105937410400e-06  -7.1235782332844657e-05 -4.7906762305263252e-03 4.2739164915680957e-05  -6.8063076213183620e-05 3.6379742798081410e-03 4.2550472827670232e-06  8.3819233291370100e-05 3.4881075281708749e-03 -6.8359000543892262e-04  9.2671130284712137e-06 3.2401464768504456e-03 7.2133441794713102e-04  7.2818680348800632e-05 6.2202971943904313e-04 9.9379095913701226e-04  7.7260171585486503e-05 4.6842675890821361e-03 -1.0749529894808272e-04  -1.7109661841516072e-04 -3.5975195519429167e-03 -2.1771649069265942e-04  -7.0564230818000642e-05 -4.8186556994800362e-03 1.8359272646315343e-05  1.4438355948165791e-04 2.2113954929854239e-03 7.0079374547796865e-04  1.0713853622100976e-04 1.8357289796175869e-03 8.7768795027247089e-04  8.1415888001890884e-05 4.5199446384824342e-03 -2.3505052824870448e-04  -1.6273332920054092e-05 -4.5536699947434905e-03 2.6806726694278764e-05  -1.7628069787350543e-06 -5.0950095497892538e-05 -1.1667300698047200e-06  -2.6611084285588557e-06 -3.3319305211102633e-03 -1.8652150725029565e-05  -6.2375314450631019e-05 1.5240129044897517e-03 -3.3560496440930540e-06  7.8662842514214007e-05 3.4771687221564064e-03 -1.8109758024542716e-04  -9.5943447699697138e-05 -2.6483002640923020e-03 -1.8129214006694318e-04  4.7789802704108097e-05 3.5671178189918728e-04 4.6075287363401494e-04  1.0106625426928720e-04 7.7973776410653593e-04 -3.3161601930730041e-06  4.2546033197341722e-05 3.7623035985724505e-03 1.4534120979515654e-04  -8.6195574260507823e-05 -2.1481421351169372e-03 2.8513720187967506e-04  4.0257019774786359e-05 -4.4457318816557294e-04 -4.4448134770597246e-04  4.7283711734893952e-06 3.0275456193058678e-03 -3.0797527876408814e-04  -3.4884062733467713e-05 -3.3054357339899389e-03 3.2036435906684316e-04  -7.2315728176802508e-05 -4.2255646454956641e-03 -2.9590092992794415e-08  -1.5303540428257428e-05 1.4327606663610611e-03 5.0454675783541218e-04  -4.1069089019341326e-05 -3.5484307094101305e-03 -3.0233420900478426e-04  -4.0154481520403244e-05 -5.3007602257344158e-04 -5.4838652883981839e-04  1.0002911362219408e-04 3.5951624791334944e-03 1.4933682854800020e-04  5.4290600825349715e-05 -1.9580163898665582e-03 2.6795917653234285e-04  -8.7531487197706589e-05 2.6691523269587548e-04 -3.7055822856113291e-04  4.5990768066129732e-05 2.3712625421439268e-03 -5.3869039022694904e-04  5.3970804691635123e-05 4.3197028281894527e-03 -8.6684120328753891e-05  -1.7966638611820354e-05 3.1157227036448594e-03 2.6254990881323631e-04  6.8404899962866966e-06 3.9652389891523558e-03 -2.1836394766985630e-05  1.1551791083321537e-04 2.1356835698181967e-03 -3.3309571372474738e-04  -1.2808946204207890e-04 -1.8252750726747507e-03 5.2882987334442651e-05  6.7361562152340758e-05 3.2705855873722892e-03 4.2234985958136467e-04  6.7101733060704824e-05 -2.0174832872494291e-03 -2.0277065548795296e-04  -9.9962840673918854e-05 2.9954978893403608e-04 3.3759010767190451e-04  -1.1250149666341784e-04 -3.8964638931907798e-03 6.4255185090306946e-05  1.2147632267246512e-04 1.7713999317103941e-03 3.3214789994286749e-04  -4.6733717393653693e-05 -1.7638968831501969e-03 6.0041791956897653e-04  -4.6412368811825564e-05 -4.3565745844207004e-03 1.0240850508027895e-04  -5.0020846411971109e-05 -4.4580623228387866e-03 -8.9579586263323197e-05  -8.7810673498580407e-05 -4.1979393571024946e-03 -2.0547124498870959e-04  1.1884527809117645e-04 3.9268758443716913e-03 -9.5414861129059869e-05  -8.3543091812642026e-05 -4.1170891277447835e-03 2.1659905665972901e-04  7.6262205815128554e-05 4.4768947060879923e-03 3.9498104714326938e-05  2.1547271935172082e-05 -2.2567720422604146e-03 5.3638468499452756e-04  -4.8155942139661604e-05 2.8947163186875367e-03 -2.2793006107208228e-04  2.9283997158572253e-05 2.7373883015480642e-03 -7.3620550004737572e-05  -1.2951242738681223e-05 1.6129195440779738e-03 1.7511597910074345e-04  </DataArray> 
</PointData> 
</Piece>
</UnstructuredGrid>
</VTKFile>