<?xml version="1.0"?>
<VTKFile type="UnstructuredGrid"  version="0.1"  >
<UnstructuredGrid>
<Piece  NumberOfPoints="201" NumberOfCells="657">
<Points>
<DataArray  type="Float64"  NumberOfComponents="3"  format="ascii">1.054615854064363 -0.9265114505095978 4877.57313843858  -0.5410854146412448 0.1413484573767578 -4877.48775185509  1599.280507621981 0.0872659770165638 -4638.745585292297  3040.207738856749 -0.858857004398492 -3947.621660035787  4185.032452762812 -0.1521453901089606 -2866.222915885211  4922.104642235527 -0.1419355505747638 -1507.205442465198  5177.221827809091 0.2510021644968361 2.423054562628824  4922.759496973171 -0.6519593542200635 1510.043682134708  4188.285831687617 0.1001500306280617 2868.539450086914  3043.803862551763 0.2987628556418606 3946.027120284503  1598.568761347155 0.4367758398655425 4637.970590554222  2034.649812289161 -222.6691935652063 -4257.486178031275  2019.242520583587 173.4247593845061 4357.458324267224  4943.317146684605 -200.0411326858871 -725.0768158457731  3565.230023550789 -216.2815692929601 3265.187391034672  4497.091779679886 202.0749581674538 2060.014910516173  4477.925915033952 201.9750657726762 -2092.187361236946  2269.244005476102 199.4591714477728 -4198.662376546406  782.1597822258586 -199.6851705148016 4652.372068772993  3535.700184901575 -199.6774227484773 -3331.182407203839  2485.607573775804 -377.3396228342829 -3475.560615861374  3693.490878246692 -370.2834296685685 -2392.621492077974  2571.358165620478 -499.7177179615084 -2329.731940340856  3612.281326849949 -477.2603758886357 -1142.657533566791  2306.346550750919 -563.659252284286 -986.5202256800728  3254.537859319782 -525.9378875916766 248.7629823386629  1736.050351103824 -587.3202818790525 452.8953697274276  2486.597508751002 -537.6121726500415 1699.524050592547  903.709723018926 -576.7711005065028 1823.462805699921  1579.780723751831 -502.723808426173 2965.898305906492  -60.31132153585516 -529.2309462730096 2986.79771208862  3756.577431040291 -447.9725545008432 1416.632807787491  3539.132271354472 200.1194418535565 3332.171226926323  3622.26724722823 373.2424541407058 2476.766529394254  4379.169835787875 360.3531591433467 1120.316771726325  582.1191601284274 -418.5954537343943 3935.828558935244  2132.927193082328 -372.3005374850371 3697.262919700381  2483.233952404939 357.2773496445449 3578.159059848042  2431.729902779254 493.4068935011746 2542.940476444247  4953.482776537255 -195.2943824660066 725.9488030061491  4418.909413987588 -386.1148217984357 85.6314848187869  4508.533133237333 -202.3956605085546 -2036.406792979683  783.2308569438106 198.9484602407834 -4653.169123269962  3499.202728869636 194.4696042305769 -3376.58788646693  3590.217173553063 371.6584579205721 -2523.77148123444  1119.210058274853 -566.0040631785535 -2047.048728706165  -787.2462361501376 -580.9415086731152 1727.722739058164  1063.266043671947 -383.287034305045 -4030.412994785854  4351.475814808297 364.5445125348736 -1155.990473065505  3304.389709490075 495.1652967633207 -1410.526934244409  2341.210651899704 484.6094438971343 -2730.625173455558  1879.120167708354 564.9007053050083 -1541.413853276867  824.6428901725865 541.6440352346521 -2681.561381359348  244.0875297118893 592.4086414879422 -1409.908472027531  -849.201632765698 550.4264577527603 -2482.204550373369  -1413.532964471 587.0207906813241 -1061.966960317484  -2455.640096441258 530.5717293954655 -1895.332042121514  -273.0672538387151 603.9510495721496 95.62063176108354  -1706.023087780602 -515.2302388081271 2746.429193103696  -2375.409360112977 -554.2016956862691 1369.173900414708  -2891.99944246528 546.1463889995374 -513.4776488456326  -3759.158079932191 454.0286476722076 -1285.692320001634  -4003.313098141433 454.0377570875561 114.032618546063  -4636.282857696451 314.5493167101439 -794.6415541799818  -4694.498884918886 299.3435854913357 739.1369180643944  -4114.790361176421 299.2889724274587 -2259.709834597514  -3836.915028988088 425.5029554614169 1607.705574119554  -4867.38097828013 133.8385311150757 -1434.346711283767  -4324.957602348883 248.8937964370782 2169.978281810271  -4138.447620261117 85.94935964774666 -2880.838167335487  -4648.28997931599 -97.70867156441543 -2056.439911617702  -3242.899176062017 362.6286929669471 2964.699634093819  -721.404027973169 -300.3912272517124 4420.465585623374  -3189.809714181144 -456.4990061895124 2223.742650759826  -3722.555943173229 -131.4810757054165 -3290.964105732522  -4051.27558289411 -301.2709025931883 -2345.201525545371  -4973.215812033243 85.83311126254576 1235.648690971327  -1772.150683078285 458.159716234209 -3317.971746343186  -3547.99932913127 160.4564464104143 3405.331483338469  1139.17517676651 462.7684080369897 3520.403599530824  -4816.818580098099 -249.3936432201153 -832.8865856459985  -3013.807534841478 53.13624807006803 -3956.800830310862  -2363.238036725902 281.0210240707469 3946.868880993917  -2923.868393728097 -321.5290671061447 -3447.998773800187  -3102.777275957547 -455.9412452530698 -2338.800625010248  -2629.011152953858 500.8263217316381 2254.412784995891  -1374.687564406614 -593.8885295647548 327.637928932834  -2471.380179035876 49.07819523308191 4277.293158960017  -3654.068799274053 -70.6307892863405 3427.8835609841  -1791.212872042784 -455.2484517599597 -3329.695684179431  -1824.910604946403 -548.512618928046 -2089.549429710988  -1525.194052204094 -304.0479960540438 -4227.98322458388  2733.859349616804 554.6816917183376 -142.5803512948091  -3624.644349731845 -483.2157978971211 884.4433301541941  -4296.629270138968 -347.5116391076237 1529.479625825551  965.580852639514 557.3489809356957 2346.780820455464  -346.5732309992298 516.1184541323087 3112.107158199135  -118.0913821840273 413.9880963668452 3999.952145282465  -1407.732378197207 183.9919518566652 4546.741564120683  -2371.494483946922 -383.7523544778661 3507.858331138196  1247.440468871384 452.3522349758516 -3556.171397186223  -3001.975264378494 -527.6057167448676 -1097.614222932787  -389.7555824569174 360.1567648567193 -4240.667226028009  -855.9438580422238 159.7230338603954 -4703.730979742147  -604.0082055106085 582.8731385052326 1728.813218816792  -1097.376256665194 -114.5259078618418 4712.617410570429  -387.9197531248184 -535.7412096393164 -2864.423667334069  -2368.11721082785 -182.2580402458483 4183.069442214995  -3671.119517748875 -289.6457534577372 2894.610323162349  -4539.800532458768 -143.3822635866117 2164.864892973944  -4972.774212827182 -184.6025005303764 686.0967218055773  -5152.14961060658 -24.17443530305228 -424.210389431257  -2006.92798904926 310.476725578658 -4023.527846578877  -3050.163000829179 342.1978050420271 -3253.438832846269  -462.8748025562303 -586.0441014862237 -1666.68456430015  -181.0960956085005 497.6804737297462 -3368.003638377711  2153.075561929447 563.6277039542385 1322.423295701029  4476.898351371343 -193.2323523082584 2135.414972499288  260.1061778202058 -207.8023554377623 -4687.540183145538  862.6660404762479 -597.4065454693318 -787.1434901927441  -1608.9731215619 442.5151212649356 3513.291054728149  4962.990523668342 188.1460442637105 -740.4531238269063  3400.961307072407 491.4143074935262 1286.721685461137  3990.288244738047 456.0004762201192 -55.62372446050887  -4023.948296430427 -418.6961952535381 -1255.096563112638  -1801.430288781456 586.8298241773671 396.5617333559153  -2980.033270617438 533.2738017659232 921.7652102318146  -288.7534118415418 -426.4728542249095 -3917.245872315014  -1212.069136943447 -83.12840895945091 -4715.685504148663  -2547.064332271666 -133.3221080753681 -4166.870937092947  1261.13997543948 596.6383009676676 -260.9848769351813  147.9383132211615 -603.2463009983421 570.0896252192789  2917.442883537271 -439.6541034151057 2702.325623769801  4972.260699020774 189.4756644981301 658.8664263294752  2272.493444671083 -197.3592520581679 4200.082165799831  -4439.445576957891 -381.6807402294172 121.7859406735772  -947.5326553891002 -455.1141018460477 3631.405158946205  2549.357739471131 348.1479203964655 -3583.418031199745  -4433.376837709791 60.10927737947179 2487.874176426323  1196.034223056979 -499.3075495321641 -3147.14337499985  1280.592742045794 344.0641802331974 4150.367534349759  777.2977462936177 594.3233759282809 1074.735045302545  -3286.452968170086 436.3158023154331 -2332.870520656976  4379.810904234643 -348.6513133715962 -1287.039471536534  -79.64416543359566 190.903919102889 4722.146626485847  3965.025442113768 -338.5865562946287 2238.858170372934  -5037.786280254362 177.920290061531 -110.552376887215  -2784.71300721847 -554.6899963958405 48.2879895574575  -1715.653324145552 -584.2190161395209 -843.2623234000612  4689.413366340817 321.3227520298298 -33.33081712442036  -1170.062188469966 353.3317045109774 4146.834767270732  1453.668306296981 322.6546585193776 -4184.550968618977  -1748.296867709445 54.62995426993107 -4581.83776060196  -1973.914407898257 561.116245106356 1609.720472118536  4446.642937340298 -326.1594003100311 1355.094780396349  -373.0572414193863 -603.6273579151426 -514.5612590261094  -3330.983078119778 193.0726750450338 -3535.210469829163  -2275.118595435885 164.1289653840191 -4262.617612336942  -1498.265773414685 530.9058873959613 2636.308619202443  -3734.006580796326 -485.7236547991353 -279.6769457164868  -1.093739279293726 -0.04428080723332874 0.5802165068722317  -1738.277094012794 -242.8844235589821 141.6486018627357  2609.067043818201 97.7019052364934 -22.87175426663063  -1049.287795034961 253.9096664135296 1126.21730328404  1952.013103667244 -183.9345759965373 1020.426304899921  -1266.820617885767 27.47916047047859 -2257.640235130366  -2681.407498114613 49.81103179408831 1.866716871227821  517.2872301259628 284.9755456736511 -980.5329371062903  1815.755603079213 -145.8213030826738 -1522.306902982325  -1409.228203735376 -28.06905152796045 2189.577331089522  1355.344203884206 218.8601388174861 1771.315708976306  -501.9764744193573 -247.8103122976314 -1927.870170010329  453.116561105951 -344.5890381219659 10.04484238085043  1072.798918090477 97.40704304408951 -2507.20
[...]
<PointData  Vectors="Tidal Force"> 
<DataArray  type="Float64"  Name="Tidal Force"  NumberOfComponents="3" format="ascii">0.0000000000000000e+00 -1.1851191412985333e-15 0.0000000000000000e+00  0.0000000000000000e+00 1.7956350625735353e-16 0.0000000000000000e+00  0.0000000000000000e+00 1.1372355396299057e-16 0.0000000000000000e+00  0.0000000000000000e+00 -1.0953373881698565e-15 0.0000000000000000e+00  0.0000000000000000e+00 -1.9153440667451043e-16 0.0000000000000000e+00  0.0000000000000000e+00 -1.7956350625735353e-16 0.0000000000000000e+00  0.0000000000000000e+00 3.2321431126323639e-16 0.0000000000000000e+00  0.0000000000000000e+00 -8.3796302920098316e-16 0.0000000000000000e+00  0.0000000000000000e+00 1.3167990458872593e-16 0.0000000000000000e+00  0.0000000000000000e+00 3.8306881334902087e-16 0.0000000000000000e+00  0.0000000000000000e+00 5.6263231960637439e-16 0.0000000000000000e+00  0.0000000000000000e+00 -2.8673299224195073e-13 0.0000000000000000e+00  0.0000000000000000e+00 2.2332313273227059e-13 0.0000000000000000e+00  0.0000000000000000e+00 -2.5757187882575648e-13 0.0000000000000000e+00  0.0000000000000000e+00 -2.7850898365536393e-13 0.0000000000000000e+00  0.0000000000000000e+00 2.6019949146732245e-13 0.0000000000000000e+00  0.0000000000000000e+00 2.6006781156273371e-13 0.0000000000000000e+00  0.0000000000000000e+00 2.5684763935051845e-13 0.0000000000000000e+00  0.0000000000000000e+00 -2.5712895551032170e-13 0.0000000000000000e+00  0.0000000000000000e+00 -2.5712297006011310e-13 0.0000000000000000e+00  0.0000000000000000e+00 -4.8602454238677887e-13 0.0000000000000000e+00  0.0000000000000000e+00 -4.7693264351994815e-13 0.0000000000000000e+00  0.0000000000000000e+00 -6.4391473343886978e-13 0.0000000000000000e+00  0.0000000000000000e+00 -6.1489128537747288e-13 0.0000000000000000e+00  0.0000000000000000e+00 -7.2660372807038102e-13 0.0000000000000000e+00  0.0000000000000000e+00 -6.7777442526879803e-13 0.0000000000000000e+00  0.0000000000000000e+00 -7.5725521858851127e-13 0.0000000000000000e+00  0.0000000000000000e+00 -6.9288768704545867e-13 0.0000000000000000e+00  0.0000000000000000e+00 -7.4360839211295240e-13 0.0000000000000000e+00  0.0000000000000000e+00 -6.4781724697486296e-13 0.0000000000000000e+00  0.0000000000000000e+00 -6.8207796396876610e-13 0.0000000000000000e+00  0.0000000000000000e+00 -5.7710513821071715e-13 0.0000000000000000e+00  0.0000000000000000e+00 2.5767961692951093e-13 0.0000000000000000e+00  0.0000000000000000e+00 4.8073340440239553e-13 0.0000000000000000e+00  0.0000000000000000e+00 4.6411180917317314e-13 0.0000000000000000e+00  0.0000000000000000e+00 -5.3924118019124972e-13 0.0000000000000000e+00  0.0000000000000000e+00 -4.7954828526109697e-13 0.0000000000000000e+00  0.0000000000000000e+00 4.6016739748571997e-13 0.0000000000000000e+00  0.0000000000000000e+00 6.3576853570499453e-13 0.0000000000000000e+00  0.0000000000000000e+00 -2.5146073416279792e-13 0.0000000000000000e+00  0.0000000000000000e+00 -4.9731908693036642e-13 0.0000000000000000e+00  0.0000000000000000e+00 -2.6061248753171434e-13 0.0000000000000000e+00  0.0000000000000000e+00 2.5619522527778348e-13 0.0000000000000000e+00  0.0000000000000000e+00 2.5041328037629665e-13 0.0000000000000000e+00  0.0000000000000000e+00 4.7869236588127019e-13 0.0000000000000000e+00  0.0000000000000000e+00 -7.2966229312696473e-13 0.0000000000000000e+00  0.0000000000000000e+00 -7.4900726820109033e-13 0.0000000000000000e+00  0.0000000000000000e+00 -4.9372781680521933e-13 0.0000000000000000e+00  0.0000000000000000e+00 4.6950469981110228e-13 0.0000000000000000e+00  0.0000000000000000e+00 6.3801906498341996e-13 0.0000000000000000e+00  0.0000000000000000e+00 6.2439618030869549e-13 0.0000000000000000e+00  0.0000000000000000e+00 7.2821381417648877e-13 0.0000000000000000e+00  0.0000000000000000e+00 6.9811897052775620e-13 0.0000000000000000e+00  0.0000000000000000e+00 7.6386914106899047e-13 0.0000000000000000e+00  0.0000000000000000e+00 7.0951526772488945e-13 0.0000000000000000e+00  0.0000000000000000e+00 7.5687214977516229e-13 0.0000000000000000e+00  0.0000000000000000e+00 6.8378381727821085e-13 0.0000000000000000e+00  0.0000000000000000e+00 7.7888065019210521e-13 0.0000000000000000e+00  0.0000000000000000e+00 -6.6396599163760746e-13 0.0000000000000000e+00  0.0000000000000000e+00 -7.1432158424237810e-13 0.0000000000000000e+00  0.0000000000000000e+00 7.0390690087945173e-13 0.0000000000000000e+00  0.0000000000000000e+00 5.8491615073291201e-13 0.0000000000000000e+00  0.0000000000000000e+00 5.8491615073291201e-13 0.0000000000000000e+00  0.0000000000000000e+00 4.0507132831575527e-13 0.0000000000000000e+00  0.0000000000000000e+00 3.8548693523328663e-13 0.0000000000000000e+00  0.0000000000000000e+00 3.8541510983078363e-13 0.0000000000000000e+00  0.0000000000000000e+00 5.4809964649994595e-13 0.0000000000000000e+00  0.0000000000000000e+00 1.7232709695518222e-13 0.0000000000000000e+00  0.0000000000000000e+00 3.2049093141833319e-13 0.0000000000000000e+00  0.0000000000000000e+00 1.1066498890640699e-13 0.0000000000000000e+00  0.0000000000000000e+00 -1.2580219248390186e-13 0.0000000000000000e+00  0.0000000000000000e+00 4.6706862157621085e-13 0.0000000000000000e+00  0.0000000000000000e+00 -3.8687555968167683e-13 0.0000000000000000e+00  0.0000000000000000e+00 -5.8812435204471001e-13 0.0000000000000000e+00  0.0000000000000000e+00 -1.6929247369943291e-13 0.0000000000000000e+00  0.0000000000000000e+00 -3.8798286797026380e-13 0.0000000000000000e+00  0.0000000000000000e+00 1.1050338175077536e-13 0.0000000000000000e+00  0.0000000000000000e+00 5.9028509957000684e-13 0.0000000000000000e+00  0.0000000000000000e+00 2.0661774120012816e-13 0.0000000000000000e+00  0.0000000000000000e+00 5.9622266617691666e-13 0.0000000000000000e+00  0.0000000000000000e+00 -3.2114933094127682e-13 0.0000000000000000e+00  0.0000000000000000e+00 6.8407710433843121e-14 0.0000000000000000e+00  0.0000000000000000e+00 3.6191623231190460e-13 0.0000000000000000e+00  0.0000000000000000e+00 -4.1409140178008304e-13 0.0000000000000000e+00  0.0000000000000000e+00 -5.8740011256947203e-13 0.0000000000000000e+00  0.0000000000000000e+00 6.4535124148892864e-13 0.0000000000000000e+00  0.0000000000000000e+00 -7.6580244148636141e-13 0.0000000000000000e+00  0.0000000000000000e+00 6.3188397851962708e-14 0.0000000000000000e+00  0.0000000000000000e+00 -9.0936945018932412e-14 0.0000000000000000e+00  0.0000000000000000e+00 -5.8653820773943676e-13 0.0000000000000000e+00  0.0000000000000000e+00 -7.0698342228666103e-13 0.0000000000000000e+00  0.0000000000000000e+00 -3.9158012354561944e-13 0.0000000000000000e+00  0.0000000000000000e+00 7.1497399831511318e-13 0.0000000000000000e+00  0.0000000000000000e+00 -6.2259455979591334e-13 0.0000000000000000e+00  0.0000000000000000e+00 -4.4755006844603656e-13 0.0000000000000000e+00  0.0000000000000000e+00 7.1843358853567148e-13 0.0000000000000000e+00  0.0000000000000000e+00 6.6515709622911472e-13 0.0000000000000000e+00  0.0000000000000000e+00 5.3329762813413140e-13 0.0000000000000000e+00  0.0000000000000000e+00 2.3692806105636942e-13 0.0000000000000000e+00  0.0000000000000000e+00 -4.9430242002524281e-13 0.0000000000000000e+00  0.0000000000000000e+00 5.8280328680928387e-13 0.0000000000000000e+00  0.0000000000000000e+00 -6.7994714369451207e-13 0.0000000000000000e+00  0.0000000000000000e+00 4.6390231841587285e-13 0.0000000000000000e+00  0.0000000000000000e+00 2.0568401096758989e-13 0.0000000000000000e+00  0.0000000000000000e+00 7.5150918638827595e-13 0.0000000000000000e+00  0.0000000000000000e+00 -1.4746952223895589e-13 0.0000000000000000e+00  0.0000000000000000e+00 -6.9049350696202724e-13 0.0000000000000000e+00  0.0000000000000000e+00 -2.3469548812856964e-13 0.0000000000000000e+00  0.0000000000000000e+00 -3.7300727154840056e-13 0.0000000000000000e+00  0.0000000000000000e+00 -1.8460924078318516e-13 0.0000000000000000e+00  0.0000000000000000e+00 -2.3769419868306745e-13 0.0000000000000000e+00  0.0000000000000000e+00 -3.1124341084607950e-14 0.0000000000000000e+00  0.0000000000000000e+00 3.9986398663429198e-13 0.0000000000000000e+00  0.0000000000000000e+00 4.4073264065846567e-13 0.0000000000000000e+00  0.0000000000000000e+00 -7.5561520523136083e-13 0.0000000000000000e+00  0.0000000000000000e+00 6.4129909169772086e-13 0.0000000000000000e+00  0.0000000000000000e+00 7.2653190266787813e-13 0.0000000000000000e+00  0.0000000000000000e+00 -2.4881516517060620e-13 0.0000000000000000e+00  0.0000000000000000e+00 -2.6760947882554252e-13 0.0000000000000000e+00  0.0000000000000000e+00 -7.7036933999550667e-13 0.0000000000000000e+00  0.0000000000000000e+00 5.7009019056626317e-13 0.0000000000000000e+00  0.0000000000000000e+00 2.4225511174200426e-13 0.0000000000000000e+00  0.0000000000000000e+00 6.3318282121488861e-13 0.0000000000000000e+00  0.0000000000000000e+00 5.8744799617114073e-13 0.0000000000000000e+00  0.0000000000000000e+00 -5.3933096194437842e-13 0.0000000000000000e+00  0.0000000000000000e+00 7.5660878996598479e-13 0.0000000000000000e+00  0.0000000000000000e+00 6.8727333474981204e-13 0.0000000000000000e+00  0.0000000000000000e+00 -5.4939848919520751e-13 0.0000000000000000e+00  0.0000000000000000e+00 -1.0703780608000844e-13 0.0000000000000000e+00  0.0000000000000000e+00 -1.7167468288244714e-13 0.0000000000000000e+00  0.0000000000000000e+00 7.6934582800983980e-13 0.0000000000000000e+00  0.0000000000000000e+00 -7.7794691995956704e-13 0.0000000000000000e+00  0.0000000000000000e+00 -5.6638519688715308e-13 0.0000000000000000e+00  0.0000000000000000e+00 2.4397892140207480e-13 0.0000000000000000e+00  0.0000000000000000e+00 -2.5414820130644964e-13 0.0000000000000000e+00  0.0000000000000000e+00 -4.9159699653096539e-13 0.0000000000000000e+00  0.0000000000000000e+00 -5.8634667333276226e-13 0.0000000000000000e+00  0.0000000000000000e+00 4.4839401692544613e-13 0.0000000000000000e+00  0.0000000000000000e+00 7.7391871196919356e-14 0.0000000000000000e+00  0.0000000000000000e+00 -6.4340597017114060e-13 0.0000000000000000e+00  0.0000000000000000e+00 4.4315674799293994e-13 0.0000000000000000e+00  0.0000000000000000e+00 7.6636507380596769e-13 0.0000000000000000e+00  0.0000000000000000e+00 5.6207567273697671e-13 0.0000000000000000e+00  0.0000000000000000e+00 -4.4901650374713826e-13 0.0000000000000000e+00  0.0000000000000000e+00 2.4583441096673420e-13 0.0000000000000000e+00  0.0000000000000000e+00 -4.3606398949577451e-13 0.0000000000000000e+00  0.0000000000000000e+00 2.2908113583292306e-13 0.0000000000000000e+00  0.0000000000000000e+00 -7.1496202741469598e-13 0.0000000000000000e+00  0.0000000000000000e+00 -7.5323299604834660e-13 0.0000000000000000e+00  0.0000000000000000e+00 4.1381008562027980e-13 0.0000000000000000e+00  0.0000000000000000e+00 4.5507976480842822e-13 0.0000000000000000e+00  0.0000000000000000e+00 4.1555783708118475e-13 0.0000000000000000e+00  0.0000000000000000e+00 7.0341010851213974e-14 0.0000000000000000e+00  0.0000000000000000e+00 7.2329377410503723e-13 0.0000000000000000e+00  0.0000000000000000e+00 -4.2004093928740996e-13 0.0000000000000000e+00  0.0000000000000000e+00 -7.7843174142646192e-13 0.0000000000000000e+00  0.0000000000000000e+00 2.4861165986351451e-13 0.0000000000000000e+00  0.0000000000000000e+00 2.1134624686490514e-13 0.0000000000000000e+00  0.0000000000000000e+00 6.8420279879281134e-13 0.0000000000000000e+00  0.0000000000000000e+00 -6.2580276110771134e-13 0.0000000000000000e+00  0.0000000000000000e+00 -5.9854502085784513e-17 0.0000000000000000e+00  0.0000000000000000e+00 -3.1315875491282456e-13 0.0000000000000000e+00  0.0000000000000000e+00 1.2593985783869920e-13 0.0000000000000000e+00  0.0000000000000000e+00 3.2739215550882412e-13 0.0000000000000000e+00  0.0000000000000000e+00 -2.3713156636346112e-13 0.0000000000000000e+00  0.0000000000000000e+00 3.5415908884158705e-14 0.0000000000000000e+00  0.0000000000000000e+00 6.4205924387421051e-14 0.0000000000000000e+00  0.0000000000000000e+00 3.6747671555567398e-13 0.0000000000000000e+00  0.0000000000000000e+00 -1.8797306380040626e-13 0.0000000000000000e+00  0.0000000000000000e+00 -3.6182046510856737e-14 0.0000000000000000e+00  0.0000000000000000e+00 2.8214813738217957e-13 0.0000000000000000e+00  0.0000000000000000e+00 -3.1948537578329197e-13 0.0000000000000000e+00  0.0000000000000000e+00 -4.4440172163632425e-13 0.0000000000000000e+00  0.0000000000000000e+00 1.2555678902535014e-13 0.0000000000000000e+00  0.0000000000000000e+00 -3.5861824924697796e-13 0.0000000000000000e+00  0.0000000000000000e+00 -4.5483436134987649e-14 0.0000000000000000e+00  0.0000000000000000e+00 3.5163322885356687e-13 0.0000000000000000e+00  0.0000000000000000e+00 -1.7443996087881038e-13 0.0000000000000000e+00  0.0000000000000000e+00 2.2523249134880713e-14 0.0000000000000000e+00  0.0000000000000000e+00 2.2636972688843702e-13 0.0000000000000000e+00  0.0000000000000000e+00 4.7914726009712208e-13 0.0000000000000000e+00  0.0000000000000000e+00 3.0077485843127580e-13 0.0000000000000000e+00  0.0000000000000000e+00 4.1345694405797366e-13 0.0000000000000000e+00  0.0000000000000000e+00 1.9517356040132614e-13 0.0000000000000000e+00  0.0000000000000000e+00 -1.6248103136207062e-13 0.0000000000000000e+00  0.0000000000000000e+00 3.3247978818611582e-13 0.0000000000000000e+00  0.0000000000000000e+00 -1.8053314919114322e-13 0.0000000000000000e+00  0.0000000000000000e+00 3.1381715443576823e-14 0.0000000000000000e+00  0.0000000000000000e+00 -4.0722010494063495e-13 0.0000000000000000e+00  0.0000000000000000e+00 1.5841092522023727e-13 0.0000000000000000e+00  0.0000000000000000e+00 -1.6622792319264076e-13 0.0000000000000000e+00  0.0000000000000000e+00 -4.9789967560059840e-13 0.0000000000000000e+00  0.0000000000000000e+00 -5.2257768681056733e-13 0.0000000000000000e+00  0.0000000000000000e+00 -4.7039653189218055e-13 0.0000000000000000e+00  0.0000000000000000e+00 4.1221197041458935e-13 0.0000000000000000e+00  0.0000000000000000e+00 -4.5688138532121037e-13 0.0000000000000000e+00  0.0000000000000000e+00 5.2503770684629326e-13 0.0000000000000000e+00  0.0000000000000000e+00 -2.1706235181409756e-13 0.0000000000000000e+00  0.0000000000000000e+00 2.7804810398930340e-13 0.0000000000000000e+00  0.0000000000000000e+00 2.3342657268435103e-13 0.0000000000000000e+00  0.0000000000000000e+00 1.2836396517317350e-13 0.0000000000000000e+00  </DataArray> 
</PointData> 
</Piece>
</UnstructuredGrid>
</VTKFile>