<?xml version="1.0"?>
<VTKFile type="UnstructuredGrid"  version="0.1"  >
<UnstructuredGrid>
<Piece  NumberOfPoints="201" NumberOfCells="657">
<Points>
<DataArray  type="Float64"  NumberOfComponents="3"  format="ascii">-44.85182340765677 2.708566989670619 191.8781459153287  -25.37239544447431 -3.301350880491611 -194.3095139834469  6852.157242006881 -69.40443285481376 -245.2273268643544  11441.40435803043 -93.32655825204797 -348.4336565510453  13772.0425067951 -102.4766916658356 -440.5075899543272  14895.6977450279 -101.1804668151486 -301.1938562689794  15239.39538053756 -102.4081847212506 4.868431788501094  14898.42405934253 -105.2545140801363 303.9571971742351  13772.15898141296 -105.952145351923 436.1166454834187  11448.71671728382 -107.25476446151 344.039956347944  6859.090835088088 -50.62399239422157 239.9739948016203  7988.356675031713 -3557.083383162386 -306.3582103222997  8171.045480460484 2708.549326786484 281.7605807852214  14694.15886257262 -2638.709682777081 -152.9627164284517  12150.90882318654 -3131.806832536653 411.9554379677361  13932.03387298196 2570.100389073414 381.8675511171241  13927.98048572822 2569.44840523768 -380.2155844754186  8859.510608562054 3046.834454634035 -320.6220096598217  3370.205950670267 -3392.765144513227 242.8021263631104  12158.26693806345 -2916.842241235326 -402.0904832494688  8633.264172277617 -5666.62069586493 -378.7051894321204  11659.91828629991 -5181.3482586032 -371.3278071636768  8019.612921783949 -7290.362824100336 -345.7187239986575  10682.39783007419 -6619.706514265632 -209.4712899593701  6767.381331347667 -8289.529606477561 -165.4264628200367  9452.624877796425 -7429.409000186586 43.90080692934976  5020.747210362934 -8775.449214161315 77.76818062721519  7474.983037391213 -7841.569054370602 276.9202142269682  2720.605624656203 -8759.689217800562 270.5899200230011  5187.284006208512 -7607.113972170041 366.7771065324511  -181.239579980444 -8121.633795827932 354.9586662866731  11238.96082611169 -6175.087312809243 243.1922486352082  12195.52903484911 2741.501342506349 411.0258367705244  11479.35399984651 5078.138384995127 382.7350857394791  13012.32105172094 4660.08646601919 214.0107099293072  2183.949101867295 -6655.767409200865 316.5171116612507  7664.781991901049 -5731.18782751342 355.0997028343605  8758.567347946555 5258.11190315786 373.9399849512748  7673.755880175822 7126.739066502912 350.1487088287697  14719.8768421791 -2577.921620898247 150.1231859374542  12969.30863572525 -5144.016397406391 12.51510933311919  14026.56252588886 -2744.946340695764 -359.8276237731668  3289.621281219342 3356.760897371999 -231.8086090897394  12136.04751877793 2692.947242948055 -412.6901037702164  11417.66802681959 5068.709208528128 -389.5400582474499  3415.69653694622 -8581.463796940556 -294.7027595168574  -2378.203157365093 -8802.393055738059 257.3552742918379  4049.219752672393 -6118.831431752941 -311.1149154419152  12933.40384981558 4727.601979902278 -226.7236378876599  9847.417718517965 6834.215289017997 -246.6137585372443  7534.063538897331 7017.332826781308 -363.8864021276932  5581.318670902062 8305.757263202495 -239.1532362673789  2588.877934434756 8191.500137014968 -340.875970496398  632.9038921117332 8973.976303117413 -214.7760630751005  -2767.035679458907 8401.060110417082 -328.3997513313157  -4255.080130085438 8827.651136416645 -173.4542787324975  -7533.523319128511 7795.097355005695 -301.9246654499651  -901.7670434154442 9194.601044890049 16.76936708236248  -5515.482637868619 -7670.998242053557 350.4600935594718  -7043.709889209636 -8030.473024713416 223.1676525495363  -8486.996478019244 7884.760256307753 -90.52154288841052  -11215.67340846093 6342.141007833966 -235.9731647800735  -11697.77569576265 6248.665379004448 19.78366972300386  -13721.68746509685 4203.629943509646 -162.0418069590407  -13864.87007762402 3997.709231697781 146.795159133748  -12868.05056288677 4152.77039302883 -378.3938673986807  -11582.08506593061 5914.121932211135 289.1328070810628  -14617.25562757832 1847.979618034602 -292.1729538982629  -13455.84758162037 3429.342355460793 371.6103392626603  -13558.89868965631 1285.284816578103 -432.8359550733784  -14341.98075051993 -1203.54585347643 -383.6028581129476  -10729.5153925145 5287.136648214073 396.4144774144891  -2995.083889340703 -4904.751204649638 255.6661984004446  -9891.553185808389 -6410.60850891086 343.2095032057646  -12725.22441815625 -1779.768629428278 -419.4363771789049  -12727.82233916922 -4039.680686091194 -381.1499087562069  -14822.67925721743 1210.128547912297 259.7592373340439  -6094.095894153986 6990.031624149691 -373.3139941736708  -12273.51932587958 2409.964368399788 407.2468935187464  3948.899654447074 7074.376110332168 356.7003062023461  -14212.52462131651 -3170.867367493167 -175.9067177286398  -11254.81274379628 854.6501376693199 -350.971949588379  -8804.369503487345 4427.367833141315 341.2908273198225  -10124.76716029177 -4659.497906619539 -391.0214334460185  -9685.33403394428 -6420.686196142421 -352.8357966217944  -8204.953065572254 7347.5295894347 340.7067926119624  -3979.894231189567 -8909.022849875555 55.25961414058215  -9785.247737121175 831.0230680392713 293.0957992613325  -12704.21753346813 -924.1421232164715 411.6419468203194  -6112.266922397035 -6849.710926122794 -370.9507385805092  -5598.083734709116 -8106.335720940818 -310.2406977782069  -5972.626370768527 -4818.424681784893 -307.1094657075623  7948.811882677678 7896.331345357833 -23.96411503985988  -10650.02211098565 -6620.893955904123 161.2095912619184  -12965.28026859843 -4558.062835887851 286.3440606391132  2960.012317975527 8383.4291656444 319.8660042941269  -1251.165473604975 7957.296260107603 347.940066907977  -489.679510677865 6555.627146080907 321.1544590922106  -5874.199319545842 3109.959680399289 261.7729138433631  -8268.07609717294 -5705.2252385253 378.057710804666  4340.072953312992 6950.946537569836 -351.4716964848778  -8824.982439134048 -7467.721007121951 -190.8165618518349  -1544.771840088182 5847.632298790781 -291.3659431078999  -3689.216158909928 2776.693088817301 -236.0381979048428  -1927.926103433856 8851.326803539068 252.634465020464  -4776.050684254306 -1954.331858632687 221.8125154803853  -1229.465861093729 -8206.50386513748 -348.5414292930412  -9155.631760503467 -2806.0963185707 321.6824444485269  -12061.90317705783 -4007.006087051204 398.5522503526212  -14096.80220406079 -1819.145306058623 395.3356097238006  -14631.82762063498 -2306.537637275621 148.0700582980756  -15101.46387473011 -212.4927367122142 -98.06792838258961  -7589.539511802362 4911.978866315221 -337.1674305887738  -10371.23227535768 5060.909938684094 -396.1299281225167  -1387.719013923837 -8902.974950129346 -251.5060787022945  -693.2548917904978 7663.90580453761 -355.3589977417305  6354.982129514792 8182.099150901216 212.5599874690319  13993.31105714136 -2631.804196296288 367.5710152909666  1064.071303048809 -3562.579804375641 -225.0090847156803  2505.158236945088 -9073.48479926347 -129.0196158334018  -5686.329561743954 6829.815035869438 358.6042883981141  14689.03198917009 2308.437369633618 -159.245049027717  10095.17777848724 6754.435294190704 227.336295103946  11632.56519160201 6049.576495943217 -12.21024555409359  -11976.92386778029 -5599.285712705322 -226.7214856496057  -5317.919667565515 8761.120886460383 62.78074645458547  -8792.195517553775 7692.795451221121 162.5877689699903  -1043.833441133145 -6752.957802871379 -317.5404123321761  -5220.016756777894 -1392.591543238426 -229.2682222823087  -9878.862057679151 -2005.018608300042 -323.6366311868299  3593.65251678214 8926.135467316806 -41.86874579586369  417.1582280254452 -9198.45465681068 93.68962240022528  9355.395735649732 -6374.179003195424 377.4033111701944  14689.45696415882 2339.320216103278 145.1705552589538  8803.659164371915 -3150.426309310701 325.5750115354507  -13028.48534012194 -4963.776306820168 25.94701830739166  -3375.112865365555 -7030.711517771828 337.574167543009  9009.975066453229 5102.573294609258 -375.3812938055615  -14058.55092297537 899.7419459875971 420.2255576908631  4000.857664995821 -7654.908693061089 -356.892315980093  4919.769244868657 5449.056096411315 303.0744342885462  2193.501908115446 8967.391971593519 168.8141731916461  -10333.24316917727 6274.805228761737 -359.0222256972145  13136.10676731294 -4654.03982736912 -239.2202192342303  -365.350737091399 3282.291101650177 214.2795953740286  12387.54058952921 -4689.991740810467 358.9436862073841  -14762.64311803063 2392.298831130214 -26.64045649724794  -8049.37261589806 -7918.577326248042 4.303194448017732  -5002.520263841538 -8666.766789621102 -141.7178354078924  13756.65236231134 4068.365529107972 -8.563986662107389  -4562.292594536383 5657.765317643471 307.6400800333647  5635.021738337898 5078.887384873926 -309.5781984139438  -7356.712634271396 981.2790690240531 -244.178204130221  -5998.746537751545 8348.212143893556 252.9740986502563  13364.39129408037 -4353.314479408489 251.3540072215847  -1085.846846781856 -9183.740477750927 -83.99658329456543  -11751.09297887543 2919.585485062272 -382.8772308536232  -8897.512177267279 2682.652684603138 -308.3462992476542  -4862.901104187047 7995.644266056339 346.6059582463467  -10886.93174507072 -6573.29560356505 -49.67464690541031  -20.60987087019314 0.2058024548962986 0.04225225535060748  -6558.036120090079 -4514.494280374764 5.59372140152021  9863.587713117546 1712.230531787108 -4.277595375151494  -4112.729477051649 4907.809777259005 68.4171381078349  7506.417996753078 -3505.789814307851 69.4605976816603  -5354.013007346661 599.7876172327748 -99.04656477162101  -10109.24052183676 986.2056502054546 -0.2497812405076647  1975.633986599513 5466.103316375262 -60.81084053118691  7198.17686919909 -2813.486223781375 -84.4256297038105  -5873.837897076703 -517.9461036086607 103.6017502759407  5348.752023588489 4105.064990927453 101.7418074253188  -2006.024067713575 -4738.942154138234 -110.4237161671563  1690.148121925984 -6452.299387343799 0.7975763462665635  4499.319831167927 1891.519706109149 -112.28633537447
[...]
<PointData  Vectors="Centrifugal"> 
<DataArray  type="Float64"  Name="Centrifugal"  NumberOfComponents="3" format="ascii">-1.0844064260024193e-06 6.5486466896913015e-08 0.0000000000000000e+00  -6.1344191991906838e-07 -7.9818518787034235e-08 0.0000000000000000e+00  1.6566825561750920e-04 -1.6780279431842361e-06 0.0000000000000000e+00  2.7662492772193280e-04 -2.2564059116474907e-06 0.0000000000000000e+00  3.3297400771887343e-04 -2.4776335612462061e-06 0.0000000000000000e+00  3.6014121895744464e-04 -2.4462940425636318e-06 0.0000000000000000e+00  3.6845097977053270e-04 -2.4759772323549395e-06 0.0000000000000000e+00  3.6020713451086938e-04 -2.5447944534351321e-06 0.0000000000000000e+00  3.3297682378775271e-04 -2.5616614563044892e-06 0.0000000000000000e+00  2.7680172252671768e-04 -2.5931555723904134e-06 0.0000000000000000e+00  1.6583589279078959e-04 -1.2239632302846192e-06 0.0000000000000000e+00  1.9313875453555487e-04 -8.6001499726521982e-05 0.0000000000000000e+00  1.9755571909828933e-04 6.5486039852067504e-05 0.0000000000000000e+00  3.5526850604146069e-04 -6.3797489576972237e-05 0.0000000000000000e+00  2.9377899511178374e-04 -7.5719362027568417e-05 0.0000000000000000e+00  3.3684220420268255e-04 6.2138686136596752e-05 0.0000000000000000e+00  3.3674420329990755e-04 6.2122922776104266e-05 0.0000000000000000e+00  2.1420110722903001e-04 7.3664939584297700e-05 0.0000000000000000e+00  8.1483264496096973e-05 -8.2028690142371943e-05 0.0000000000000000e+00  2.9395689617465272e-04 -7.0522048597266673e-05 0.0000000000000000e+00  2.0873102662300754e-04 -1.3700490703495092e-04 0.0000000000000000e+00  2.8190805536275880e-04 -1.2527221682644927e-04 0.0000000000000000e+00  1.9389445346272593e-04 -1.7626298539723853e-04 0.0000000000000000e+00  2.5827402259121678e-04 -1.6004817055205963e-04 0.0000000000000000e+00  1.6361858326743558e-04 -2.0042037292661608e-04 0.0000000000000000e+00  2.2854114685385573e-04 -1.7962477886299192e-04 0.0000000000000000e+00  1.2138927973487201e-04 -2.1216871011914338e-04 0.0000000000000000e+00  1.8072664663666905e-04 -1.8958979204063524e-04 0.0000000000000000e+00  6.5777531387760309e-05 -2.1178767229216292e-04 0.0000000000000000e+00  1.2541572855813144e-04 -1.8392124662975257e-04 0.0000000000000000e+00  -4.3819258671035001e-06 -1.9636106647852563e-04 0.0000000000000000e+00  2.7173034261398739e-04 -1.4929837528061406e-04 0.0000000000000000e+00  2.9485780173725090e-04 6.6282738288864017e-05 0.0000000000000000e+00  2.7754245642697101e-04 1.2277685673483743e-04 0.0000000000000000e+00  3.1460581741440377e-04 1.1266939280366668e-04 0.0000000000000000e+00  5.2802500772415553e-05 -1.6092003401767038e-04 0.0000000000000000e+00  1.8531551706114048e-04 -1.3856598097015705e-04 0.0000000000000000e+00  2.1176054824710957e-04 1.2712817235097359e-04 0.0000000000000000e+00  1.8553248353813144e-04 1.7230696665140939e-04 0.0000000000000000e+00  3.5589030333374970e-04 -6.2327784224605530e-05 0.0000000000000000e+00  3.1356588332120830e-04 -1.2436962453251955e-04 0.0000000000000000e+00  3.3912767379712649e-04 -6.6366029845156275e-05 0.0000000000000000e+00  7.9534926017288526e-05 8.1158196280651669e-05 0.0000000000000000e+00  2.9341968543884127e-04 6.5108819960255253e-05 0.0000000000000000e+00  2.7605104179848148e-04 1.2254888251270172e-04 0.0000000000000000e+00  8.2583114632219507e-05 -2.0747862135568333e-04 0.0000000000000000e+00  -5.7499084546596347e-05 -2.1282014572927339e-04 0.0000000000000000e+00  9.7900142881239874e-05 -1.4793824687817596e-04 0.0000000000000000e+00  3.1269779418666415e-04 1.1430175134669019e-04 0.0000000000000000e+00  2.3808626366052455e-04 1.6523446346285495e-04 0.0000000000000000e+00  1.8215506739232860e-04 1.6966179371561704e-04 0.0000000000000000e+00  1.3494251453910968e-04 2.0081271762733329e-04 0.0000000000000000e+00  6.2592680853139655e-05 1.9805026222550508e-04 0.0000000000000000e+00  1.5302054532095480e-05 2.1696860529938668e-04 0.0000000000000000e+00  -6.6900095554886174e-05 2.0311690532994904e-04 0.0000000000000000e+00  -1.0287733888277134e-04 2.1343082380020491e-04 0.0000000000000000e+00  -1.8214200621121583e-04 1.8846622101074541e-04 0.0000000000000000e+00  -2.1802502158027070e-05 2.2230276720265794e-04 0.0000000000000000e+00  -1.3335076169920652e-04 -1.8546581065232280e-04 0.0000000000000000e+00  -1.7029952600436640e-04 -1.9415702395616407e-04 0.0000000000000000e+00  -2.0519463466567937e-04 1.9063404873677242e-04 0.0000000000000000e+00  -2.7116731031280356e-04 1.5333732145066665e-04 0.0000000000000000e+00  -2.8282335411706046e-04 1.5107731138026188e-04 0.0000000000000000e+00  -3.3175654705282882e-04 1.0163340031566539e-04 0.0000000000000000e+00  -3.3521834934579364e-04 9.6654745577235096e-05 0.0000000000000000e+00  -3.1111771295647903e-04 1.0040374187204510e-04 0.0000000000000000e+00  -2.8002624013402660e-04 1.4298887626398223e-04 0.0000000000000000e+00  -3.5340917556452196e-04 4.4679587599019630e-05 0.0000000000000000e+00  -3.2532919458357664e-04 8.2913036855241973e-05 0.0000000000000000e+00  -3.2782071611538128e-04 3.1075015650370732e-05 0.0000000000000000e+00  -3.4675370822964891e-04 -2.9098769199103885e-05 0.0000000000000000e+00  -2.5941320899671561e-04 1.2782991907297350e-04 0.0000000000000000e+00  -7.2413738600933194e-05 -1.1858478251649075e-04 0.0000000000000000e+00  -2.3915335036309504e-04 -1.5499269669517576e-04 0.0000000000000000e+00  -3.0766452917531606e-04 -4.3030414193149965e-05 0.0000000000000000e+00  -3.0772734049549485e-04 -9.7669511787277233e-05 0.0000000000000000e+00  -3.5837581208247844e-04 2.9257922508921152e-05 0.0000000000000000e+00  -1.4734020260962678e-04 1.6900171799690586e-04 0.0000000000000000e+00  -2.9674341454702613e-04 5.8266992264207040e-05 0.0000000000000000e+00  9.5474650428370154e-05 1.7104095956759621e-04 0.0000000000000000e+00  -3.4362377843576684e-04 -7.6663749387809180e-05 0.0000000000000000e+00  -2.7211360287177913e-04 2.0663331629773195e-05 0.0000000000000000e+00  -2.1286793135931380e-04 1.0704283045302272e-04 0.0000000000000000e+00  -2.4479188885159227e-04 -1.1265516288955000e-04 0.0000000000000000e+00  -2.3416748008055018e-04 -1.5523635030751225e-04 0.0000000000000000e+00  -1.9837552084528222e-04 1.7764513673407291e-04 0.0000000000000000e+00  -9.6224022820330443e-05 -2.1539819106123376e-04 0.0000000000000000e+00  -2.3658314690385733e-04 2.0092087381762088e-05 0.0000000000000000e+00  -3.0715663453435534e-04 -2.2343476381037285e-05 0.0000000000000000e+00  -1.4777953323872356e-04 -1.6560910973528652e-04 0.0000000000000000e+00  -1.3534785241711431e-04 -1.9599119677306736e-04 0.0000000000000000e+00  -1.4440336923887578e-04 -1.1649762018915050e-04 0.0000000000000000e+00  1.9218265902626200e-04 1.9091380912037448e-04 0.0000000000000000e+00  -2.5749125758505538e-04 -1.6007687996107484e-04 0.0000000000000000e+00  -3.1346848734337005e-04 -1.1020271315247484e-04 0.0000000000000000e+00  7.1565794538264483e-05 2.0269063258660441e-04 0.0000000000000000e+00  -3.0250094120765171e-05 1.9238779033880669e-04 0.0000000000000000e+00  -1.1839242370024313e-05 1.5849888953393685e-04 0.0000000000000000e+00  -1.4202364599176856e-04 7.5191151792896793e-05 0.0000000000000000e+00  -1.9990168000439562e-04 -1.3793826962655179e-04 0.0000000000000000e+00  1.0493225564355390e-04 1.6805673703898982e-04 0.0000000000000000e+00  -2.1336630128445362e-04 -1.8055106866254271e-04 0.0000000000000000e+00  -3.7348771640200185e-05 1.4138132097936743e-04 0.0000000000000000e+00  -8.9196144229686263e-05 6.7133587885211306e-05 0.0000000000000000e+00  -4.6612496362065721e-05 2.1400324301567610e-04 0.0000000000000000e+00  -1.1547312147925566e-04 -4.7250922371211693e-05 0.0000000000000000e+00  -2.9725451030224973e-05 -1.9841301535244402e-04 0.0000000000000000e+00  -2.2136058605605311e-04 -6.7844485433344505e-05 0.0000000000000000e+00  -2.9162705819418719e-04 -9.6879520601323463e-05 0.0000000000000000e+00  -3.4082589591125854e-04 -4.3982445079039704e-05 0.0000000000000000e+00  -3.5376149040279906e-04 -5.5766389092913970e-05 0.0000000000000000e+00  -3.6511613628186678e-04 -5.1375500852039527e-06 0.0000000000000000e+00  -1.8349633953995570e-04 1.1875952954257923e-04 0.0000000000000000e+00  -2.5075080722451271e-04 1.2236031541120127e-04 0.0000000000000000e+00  -3.3551621803804143e-05 -2.1525196776750051e-04 0.0000000000000000e+00  -1.6761192798838710e-05 1.8529433301253079e-04 0.0000000000000000e+00  1.5364778808969748e-04 1.9782296957655606e-04 0.0000000000000000e+00  3.3832373532496993e-04 -6.3630531951941588e-05 0.0000000000000000e+00  2.5726618698714654e-05 -8.6134389630004786e-05 0.0000000000000000e+00  6.0568545131485241e-05 -2.1937447521646562e-04 0.0000000000000000e+00  -1.3748141878374180e-04 1.6512807619857475e-04 0.0000000000000000e+00  3.5514455089224778e-04 5.5812319934074330e-05 0.0000000000000000e+00  2.4407649060615948e-04 1.6330558003105271e-04 0.0000000000000000e+00  2.8124672502191921e-04 1.4626383340468439e-04 0.0000000000000000e+00  -2.8957246816737280e-04 -1.3537691327939312e-04 0.0000000000000000e+00  -1.2857417652919933e-04 2.1182228650796649e-04 0.0000000000000000e+00  -2.1257359441661161e-04 1.8599281338921024e-04 0.0000000000000000e+00  -2.5237317130962708e-05 -1.6326985793640138e-04 0.0000000000000000e+00  -1.2620712570458729e-04 -3.3669427540520747e-05 0.0000000000000000e+00  -2.3884651019805952e-04 -4.8476402917517887e-05 0.0000000000000000e+00  8.6885651149535013e-05 2.1581193192858546e-04 0.0000000000000000e+00  1.0085856689013377e-05 -2.2239593803078853e-04 0.0000000000000000e+00  2.2619038609257537e-04 -1.5411192113038203e-04 0.0000000000000000e+00  3.5515482573892471e-04 5.6558990963712574e-05 0.0000000000000000e+00  2.1285075711213955e-04 -7.6169535035677094e-05 0.0000000000000000e+00  -3.1499663002539812e-04 -1.2001186385290395e-04 0.0000000000000000e+00  -8.1601901586478929e-05 -1.6998525745419855e-04 0.0000000000000000e+00  2.1783896657622212e-04 1.2336763256046024e-04 0.0000000000000000e+00  -3.3990107431292890e-04 2.1753540298793797e-05 0.0000000000000000e+00  9.6730866926175870e-05 -1.8507680505582084e-04 0.0000000000000000e+00  1.1894788167461072e-04 1.3174473182259031e-04 0.0000000000000000e+00  5.3033464057624581e-05 2.1680941240882060e-04 0.0000000000000000e+00  -2.4983232436851611e-04 1.5170930845190584e-04 0.0000000000000000e+00  3.1759865059791185e-04 -1.1252320000012656e-04 0.0000000000000000e+00  -8.8332793841106627e-06 7.9357700361236229e-05 0.0000000000000000e+00  2.9950016737463701e-04 -1.1339242856210795e-04 0.0000000000000000e+00  -3.5692428636556733e-04 5.7839883159638533e-05 0.0000000000000000e+00  -1.9461396943958801e-04 -1.9145166205024962e-04 0.0000000000000000e+00  -1.2094859713977337e-04 -2.0954103724855089e-04 0.0000000000000000e+00  3.3260191199773359e-04 9.8363040516612641e-05 0.0000000000000000e+00  -1.1030497828040997e-04 1.3679080583864646e-04 0.0000000000000000e+00  1.3624092220682383e-04 1.2279496570388108e-04 0.0000000000000000e+00  -1.7786716010067426e-04 2.3724906755288502e-05 0.0000000000000000e+00  -1.4503489042960176e-04 2.0183917189248331e-04 0.0000000000000000e+00  3.2311800720318261e-04 -1.0525240307340363e-04 0.0000000000000000e+00  -2.6253097618850873e-05 -2.2204018548577538e-04 0.0000000000000000e+00  -2.8411243447169776e-04 7.0588373464530008e-05 0.0000000000000000e+00  -2.1511989139812800e-04 6.4859922939489330e-05 0.0000000000000000e+00  -1.1757295034507593e-04 1.9331495050567947e-04 0.0000000000000000e+00  -2.6321914800433028e-04 -1.5892606924208842e-04 0.0000000000000000e+00  -4.9829582640557606e-07 4.9757955781399883e-09 0.0000000000000000e+00  -1.5855713258175870e-04 -1.0914933297792511e-04 0.0000000000000000e+00  2.3847721423332207e-04 4.1397509630577278e-05 0.0000000000000000e+00  -9.9435651317642993e-05 1.1865873125569477e-04 0.0000000000000000e+00  1.8148666639379943e-04 -8.4761347789489398e-05 0.0000000000000000e+00  -1.2944682443113222e-04 1.4501384714112804e-05 0.0000000000000000e+00  -2.4441649304300205e-04 2.3844019332781236e-05 0.0000000000000000e+00  4.7765955266190912e-05 1.3215689154029864e-04 0.0000000000000000e+00  1.7403415646037482e-04 -6.8023155108045856e-05 0.0000000000000000e+00  -1.4201490768821150e-04 -1.2522658844238939e-05 0.0000000000000000e+00  1.2931962682441280e-04 9.9250342953932763e-05 0.0000000000000000e+00  -4.8500712445342833e-05 -1.1457592877982790e-04 0.0000000000000000e+00  4.0863611444602237e-05 -1.5600067927076569e-04 0.0000000000000000e+00  1.0878245223639145e-04 4.5732279501144013e-05 0.0000000000000000e+00  -4.0331353744786085e-05 -1.2693784893024395e-04 0.0000000000000000e+00  9.8189214976607172e-05 -1.7754982797428017e-05 0.0000000000000000e+00  -1.6499009572760998e-04 1.2167002210571649e-04 0.0000000000000000e+00  -2.4072906808591507e-04 -5.6416232695181818e-05 0.0000000000000000e+00  2.4924889448027195e-04 5.0164041255829962e-06 0.0000000000000000e+00  -3.8485898149982591e-05 8.2284942444752122e-05 0.0000000000000000e+00  4.7460157103513246e-05 1.6207997163488171e-04 0.0000000000000000e+00  2.0594803197066655e-04 9.7245590621225912e-05 0.0000000000000000e+00  1.9485097444522196e-04 1.3117477278265396e-04 0.0000000000000000e+00  -2.3676796320060687e-04 6.6517011694690599e-05 0.0000000000000000e+00  2.7601846135712487e-04 -5.2596331111897052e-05 0.0000000000000000e+00  -6.3565165887619239e-05 1.1677677166243216e-04 0.0000000000000000e+00  -2.6886416741423385e-04 -5.5265765865579851e-05 0.0000000000000000e+00  2.7103816511786315e-04 7.6363634144938557e-06 0.0000000000000000e+00  1.9235103824288233e-04 -1.3264992998647169e-04 0.0000000000000000e+00  -2.5673579179103271e-04 5.3392909910663709e-05 0.0000000000000000e+00  6.9397203669933783e-05 -6.1050362645795697e-05 0.0000000000000000e+00  -9.0838280250151373e-05 -1.6399706501582083e-04 0.0000000000000000e+00  -8.6445558202785850e-05 -1.7023480875617242e-04 0.0000000000000000e+00  1.0597569083099500e-04 -1.5614904590039165e-04 0.0000000000000000e+00  -2.1956885258829015e-04 1.3068618461054839e-04 0.0000000000000000e+00  9.1327647585293334e-05 -1.5365243183094099e-04 0.0000000000000000e+00  -6.3619853212737456e-05 1.7354929819623187e-04 0.0000000000000000e+00  -1.6857679170383813e-04 -7.2753044252448995e-05 0.0000000000000000e+00  2.5766402173725745e-04 8.3690128476088011e-05 0.0000000000000000e+00  3.7285576636176220e-05 9.0495067677890290e-05 0.0000000000000000e+00  1.1608562357411777e-04 4.8744979413690625e-05 0.0000000000000000e+00  </DataArray> 
</PointData> 
</Piece>
</UnstructuredGrid>
</VTKFile>