<?xml version="1.0"?>
<VTKFile type="UnstructuredGrid"  version="0.1"  >
<UnstructuredGrid>
<Piece  NumberOfPoints="201" NumberOfCells="657">
<Points>
<DataArray  type="Float64"  NumberOfComponents="3"  format="ascii">-2.811130779912052 -0.5722973653390001 631.2403985280412  -1.1103470039911 -0.2206961645537567 -633.1103961012763  2205.159128491954 -0.4729299778840492 -627.8604157988732  4092.156167467808 -0.7485322793829418 -584.6457076846033  5471.772414135579 -0.6903240005389055 -477.6209017008154  6301.989703262572 -0.8692811851386394 -269.0329232660827  6579.352239050346 -1.810120326499259 0.5685932573936313  6302.45523515998 -2.21763859780206 268.7557443489779  5471.72560972177 -1.318451672623591 476.3369632806015  4091.615617612144 -1.292405607925752 584.7531181693167  2205.663885650185 0.9987173732468001 625.2769496082554  2751.271772387893 -1948.392566678665 -607.627855922177  2746.736113148097 1517.82612541608 611.3639604223632  6274.713100980013 -1643.043368619705 -132.0911031419229  4676.967593918924 -1844.130009398154 522.2913331390371  5774.786336854717 1677.975897755138 359.5209797121566  5754.869965747856 1676.352336542934 -364.3597062133503  3065.511568776158 1740.786114669662 -604.0731550903014  1074.844776538808 -1768.215196057505 626.2925242168159  4653.488686921854 -1702.900679856553 -528.5332332866844  3247.280624891517 -3349.07994523222 -538.6297300006435  4722.137563313165 -3218.480153327784 -403.4593519302148  3229.483810385565 -4593.011099766187 -389.2551469969007  4492.913334383304 -4260.857239316874 -201.335932884196  2815.264189076817 -5401.24012328883 -170.585531680304  3998.190125794657 -4835.067122989121 43.6332211702649  2098.20675934603 -5760.257824821987 77.74025064276651  3071.455224455067 -5038.373211193538 290.0550099374761  1106.701201975566 -5653.842423436772 304.805010739786  2004.560361249044 -4686.919161759424 473.8650255960011  -78.45980720845046 -5035.454638245865 473.7113451474622  4703.427672178555 -3950.504822348619 246.2768462260126  4656.489630427547 1700.761322804817 528.7744344264077  4631.795157316784 3242.059716682861 416.3677259784306  5518.952201457122 3064.613662866013 199.0117386480569  768.168221360342 -3828.322341214403 573.1917832477596  2802.864896020166 -3336.197485579666 556.4236399276823  3256.469639230376 3163.99001942526 550.1183223965264  3064.283577466984 4535.020695522925 417.6064666736863  6287.640029535666 -1603.418218616923 131.9414356952517  5536.379293317618 -3304.192267967637 15.24212455576548  5789.532066898311 -1679.943526424222 -354.7404465932349  1072.891561349819 1768.857628030593 -623.5146307466796  4614.134851420267 1661.919333753505 -534.4610989144721  4598.170013561848 3226.899481045533 -423.2835661919807  1378.316830399619 -5498.697836400935 -340.4825840724509  -966.3114786319205 -5719.149595875308 289.9307710118054  1409.330868419109 -3483.353447857904 -583.3099755585232  5483.079540206399 3104.339554446592 -206.0227938387623  4106.286647571378 4485.440053261857 -245.5549107194465  2968.455299387195 4433.790938232632 -444.5650803764995  2303.887469896953 5442.903175216464 -261.5665622265803  1033.433731752667 5179.8225168607 -433.3059021616875  294.2504764374679 5885.805019040471 -237.8742514188473  -1058.927291042105 5316.308465694159 -403.4200337663164  -1718.991887999273 5769.250269507511 -181.7265672962653  -3050.555037214706 4963.790899732257 -321.4399855228294  -333.0184639434823 6091.162716598014 16.72030218777387  -2153.9742865585 -4823.287754515563 443.3727633972828  -2918.71696520082 -5250.479285554113 234.4823848563854  -3545.379282244832 5113.55893913773 -90.1983632641996  -4699.052027652891 4019.431982863513 -225.7315496089496  -4978.800618114247 3991.727061971498 20.37484621199874  -5855.107418872726 2637.588069153751 -143.2897299465496  -5932.203688848926 2503.458369029323 132.1340234539751  -5273.400131287898 2532.231632724967 -386.7713223341709  -4827.044649381935 3719.375744081805 281.0704132509809  -6215.474326219191 1102.75157183787 -256.8050977610215  -5551.87858226892 2082.576667686858 373.7762543336407  -5404.750232546396 722.2748988102607 -478.0639129762888  -5980.007748961344 -803.297450945979 -358.7025209436842  -4191.484763881633 3175.388342800376 481.1112652093967  -978.6203776202722 -2691.632318109864 608.3786784771274  -4026.824053383242 -4098.325160904546 373.9730043111798  -4902.378040362943 -1108.021376992391 -525.0694855556173  -5194.471862050632 -2560.844401198889 -399.3478396315505  -6346.310439652633 701.2528270645496 222.6965654187315  -2282.625376357592 4201.477944235467 -518.0489223845491  -4683.120457100988 1370.699476979557 538.6025933401246  1475.448379587054 4262.612865925775 538.9043264147228  -6096.43160288745 -2070.221641367354 -151.2874090114946  -4047.94730192394 450.5736666315161 -587.5770473136077  -3152.196439685609 2474.692178385326 582.6608190477305  -3829.326304697647 -2808.705425147333 -538.7304144399327  -3920.753073880374 -4096.461009961991 -390.989816539991  -3300.12462983242 4609.647019916515 377.1264182113932  -1659.857133312006 -5895.969184519038 57.09674743436351  -3360.202922773215 420.2278527326814 606.846183538571  -4833.663979014194 -591.7527112560947 541.0144520410736  -2307.785835825945 -4176.582327363791 -517.6696201141092  -2262.035011624335 -5218.136959175377 -349.6071234371672  -2045.568315875147 -2711.294522800407 -602.4650248396858  3338.194990207797 5253.349623747451 -24.91923762162083  -4498.568462339358 -4346.069247778991 155.5206279754404  -5439.210284169999 -2948.524497620398 270.0103435703474  1196.754941402497 5371.751290265276 384.9980218866785  -443.2706835473598 4905.56368660003 486.7204266476893  -156.8650987022307 3775.826580089534 583.1560116737442  -1925.686283850333 1627.966164204058 623.3659112479396  -3097.628566729756 -3428.671705995103 541.5601998700029  1618.008297628606 4173.178368292494 -541.2897812709097  -3700.882363496871 -4897.544729387263 -190.6507023121465  -518.728221650068 3263.069485701497 -599.247185551415  -1173.996791820151 1422.917592514214 -629.0644287375726  -742.2845893208763 5743.883173773338 288.9464199643022  -1511.795118998093 -1012.108492464767 625.9295343403301  -488.2070636202779 -5118.057809405529 -457.0690132499093  -3196.211342768297 -1590.500722527062 603.6546791198186  -4760.197514859155 -2486.47196604333 473.7247197871601  -5844.891531635739 -1180.904797494554 376.9116593725765  -6307.055104789389 -1516.316196442073 125.4038253864133  -6546.914125843939 -195.0472116573292 -78.26851251767904  -2678.481908610618 2756.780854301999 -588.901746222252  -3972.814616285844 2992.283953590247 -516.5066288851394  -568.1844079997319 -5787.696254982046 -280.2133268439155  -233.8558433847637 4654.937747619249 -520.2930944225418  2636.176661792761 5385.140925766146 225.7078062672024  5757.182178386025 -1605.568758970716 368.4510992690969  352.5129449572294 -1857.317095390704 -624.1543680148646  1040.074953586316 -5961.719165662153 -135.1906881129654  -2089.031246274179 4044.888382307915 537.3871314774383  6300.457954911822 1539.296196600594 -135.0522526566945  4223.65864633197 4441.005857667335 224.807325879431  4958.8721683723 4008.47598378255 -10.19188316907978  -5046.471814432538 -3647.394807643897 -220.0636363652854  -2183.607277011614 5742.076264015184 68.00136905470328  -3667.288273344102 4962.589917406097 160.3210192686196  -376.4010294193532 -3911.040835476475 -572.5755998126384  -1666.732111575324 -732.5736736159392 -629.1914993789611  -3441.712644283117 -1152.81601324346 -601.475531162451  1517.50651509362 5929.451867554704 -45.46452337191221  174.2158500198751 -6067.89514299992 97.58353493646847  3717.327865251691 -3936.335859572591 443.762368584788  6308.996432763168 1559.294530505136 119.8343294554221  3065.227453746571 -1727.872923419897 605.6911592107652  -5565.746779500996 -3257.60702478474 22.09667089797159  -1232.969530653321 -4187.803105475563 547.5334211018759  3348.990090006494 3068.656726677726 -549.4742277997034  -5746.940585673643 498.7451862416827 424.1791865918383  1523.497163572952 -4674.936821184173 -494.5733872707898  1713.334652509395 3093.113551041555 594.898037450396  936.6169611949795 5917.03707790624 182.2374099636654  -4166.016397363334 3888.278572692732 -391.8764910491939  5534.659826062452 -2955.733843571137 -227.7886700288234  -110.2290743450857 1706.663804830614 623.1237146234387  5065.825596514482 -2907.554520770941 380.9524072936399  -6384.887659666436 1461.308256606988 -20.77129183733093  -3399.896592565237 -5230.704598576625 7.43054577463907  -2081.506242125179 -5713.888047933777 -145.728179711885  5905.46244818007 2696.771724657407 -6.641044175018385  -1562.792435143679 3171.792481537242 595.0256681961836  1946.719527118541 2881.386780528946 -599.9808823037606  -2399.449339374812 482.5288300089653 -623.109321383857  -2427.667705978847 5377.29187046889 272.6245344997855  5630.804158936799 -2751.937275969703 239.6471203517593  -453.4667172125075 -6064.217187481936 -88.20808960608059  -4407.080203647712 1651.667407046069 -548.2808708599358  -3077.713546259506 1429.839131990922 -609.0096155926125  -1883.230482367158 5003.241535933174 428.1540680839312  -4628.074463809644 -4332.156985667969 -48.96525310085159  -0.1708098946852643 0.3504670041992614 -0.2732631649656412  -2245.525670218788 -2536.795757754025 18.63319445846798  3394.593546488402 989.5574469909245 -3.330828087921359  -1361.09540963013 2675.014661010372 150.6232755916669  2541.028537327048 -1895.979092448141 137.4157430585061  -1685.042740433346 282.042882970617 -287.3083236730157  -3492.414595207749 503.3685043220956 0.1742195518320603  670.7189991372765 3022.17834942216 -131.5746171192731  2381.351088496768 -1495.799092307765 -201.7868372944495  -1868.627019320735 -286.5144187948767 281.4512753787026  1773.027636643751 2254.445655105039 236.313696176935  -655.1221670177658 -2577.598135539173 -254.9008202959111  576.4499634151116 -3673.548032320032 1.094366185412352  1426.778961099506 997.0097137524231 -320.770826
[...]
<PointData  Vectors="Self-Gravity"> 
<DataArray  type="Float64"  Name="Self-Gravity"  NumberOfComponents="3" format="ascii">-8.4253925395125311e-07 -3.1394380561974622e-07 -2.3997863638334038e-04  -6.0698255695079544e-07 -3.5387465435063424e-07 2.3648717192151550e-04  -3.8373373002093424e-06 3.1383111412726894e-07 2.2609208129379196e-04  -1.0140964106696547e-05 8.2632898958136482e-07 2.0181774697701100e-04  -1.1904253258272330e-05 5.9502645740323847e-07 8.9034812235861294e-05  -3.3007301994490353e-05 1.9183133837451551e-06 9.2325938431455924e-05  -4.3098413866940840e-05 -3.8777216253651368e-07 1.2162836278403844e-05  -3.3726427970596897e-05 -1.9307002720024633e-06 -7.3773803282856248e-05  -1.4062302497620630e-05 8.5066273160521582e-07 -1.1159831399499718e-04  -1.0356991247791618e-05 4.5970990504101890e-07 -2.0183905933533405e-04  -3.8090707944055088e-06 1.1423912052081518e-06 -2.0223458260370565e-04  -4.4312069540669550e-06 4.2266388325652358e-06 1.5111062316665148e-04  -5.9202874475041301e-06 -4.3296834821509297e-06 -2.1068456550889960e-04  -5.3496271795388243e-05 1.6082051785562251e-05 4.9500882538228800e-05  -1.2684144196699790e-05 6.1989560501547511e-06 -1.7028653433867814e-04  -2.3341683511982892e-05 -8.4217040707059536e-06 -1.1984326866255082e-04  -2.2384732859660125e-05 -8.6227517704494128e-06 1.2520865639420640e-04  -5.3035727104216503e-06 -4.0083391676854916e-06 1.9000085512156059e-04  -1.5097555960172812e-06 3.3279240697380663e-06 -1.8062712329789006e-04  -1.4211931954489270e-05 7.0787424561789513e-06 1.7584333961942556e-04  -1.0069683205511997e-05 1.2874664251571218e-05 1.7517967749081862e-04  -2.1393755879026115e-05 1.9429665762290685e-05 1.3561876768242029e-04  -1.2013491008272540e-05 2.0094540393318267e-05 9.6936103330164908e-05  -2.9424110975588045e-05 3.3493132086452838e-05 6.3380507528367402e-05  -1.5198022708340026e-05 3.6134788669403964e-05 5.7426497589272332e-05  -2.8039433920197154e-05 4.0463783989544151e-05 -3.1981406408583040e-05  -1.4786479954686400e-05 4.4361249891648299e-05 -2.8998716125076464e-05  -1.1048233276986078e-05 2.1666470814443786e-05 -7.0443185897970780e-05  -4.6408428975957231e-06 3.3526916589992637e-05 -1.0133460901551712e-04  -4.5597274150654966e-06 1.3898408316912272e-05 -9.6423622743940015e-05  9.6766832199539144e-07 2.2895641453129969e-05 -1.4255813779220447e-04  -2.7616773345814912e-05 3.0185404363590355e-05 -9.4916042468801232e-05  -1.5738307735399989e-05 -8.2178856686194333e-06 -1.7579848370060462e-04  -1.8063893673577038e-05 -1.6425668437662917e-05 -1.2135989873360986e-04  -3.2879903906578277e-05 -2.1130230779754562e-05 -8.5176716346645168e-05  -1.6127033590688670e-06 1.1989447542740992e-05 -1.9964751902527833e-04  -7.3400317783848679e-06 1.1379809531181416e-05 -1.9066186760445205e-04  -1.1521934086885321e-05 -1.2591964724761114e-05 -1.8013222570259125e-04  -1.5240021012023445e-05 -2.5246822066460499e-05 -1.2104495279852308e-04  -5.0467074814001507e-05 1.3611792053581831e-05 -6.2901093126882439e-05  -4.2636118642964176e-05 3.0704666529427520e-05 -1.3214753891136735e-05  -2.7368244063002653e-05 8.5904985352411338e-06 1.3683984997542816e-04  -1.1035069226147145e-06 -4.2361497786726906e-06 2.3332668898996389e-04  -1.4745719898464187e-05 -6.5229413657299178e-06 1.8115299799007084e-04  -1.7028904392935298e-05 -1.4592681583487690e-05 1.1911350025510356e-04  -6.0268914188208230e-06 2.4938387121199836e-05 1.0178562319402724e-04  3.7622952805848599e-06 3.5381488548204786e-05 -1.1192967325476824e-04  -4.0236921003367454e-06 1.0270871335318576e-05 1.8854615428678815e-04  -2.9503597505831866e-05 -1.9508014923011408e-05 7.8254236783983113e-05  -2.4859844038786061e-05 -3.0566362086061436e-05 8.7678298191793899e-05  -1.0666701048795417e-05 -2.1180542175980415e-05 1.3814348728760862e-04  -1.5613457778719294e-05 -3.6656147154653950e-05 9.7591157175671669e-05  -3.8776695992812942e-06 -2.6478802439092132e-05 1.5516051793602981e-04  -2.2688231880195580e-06 -4.3081161589924543e-05 1.0248492249535260e-04  4.5323452284049325e-06 -2.8458668798334372e-05 1.2493420992401488e-04  9.8196280622492559e-06 -3.8819973737659246e-05 5.8837388953843674e-05  1.4282435477464190e-05 -3.0501079669803437e-05 1.1793155362589603e-04  2.4114944922357784e-06 -4.9320156302526086e-05 -9.6077376484661939e-06  8.8572343445996982e-06 2.3534245317827062e-05 -1.4152865317331161e-04  1.1635415286315561e-05 2.6528056797964905e-05 -6.8148246856560081e-05  2.3532444253107291e-05 -4.0494252068771240e-05 3.4635990677145803e-05  2.9557648672341771e-05 -2.9183063611623044e-05 9.0290852641540574e-05  3.1731647672860078e-05 -2.8839547674248163e-05 -1.2303748068226876e-05  3.7359255577812351e-05 -2.1351276032768348e-05 4.6594871099147162e-05  3.6376538721735358e-05 -1.8436569288491796e-05 -5.3980517955585961e-05  1.7212348836551463e-05 -8.9564422690819532e-06 9.4739054600669203e-05  2.7277512815122032e-05 -2.1551400015107925e-05 -1.0002736938609557e-04  3.3169112147832965e-05 -5.5571504313044696e-06 9.2659359242807128e-05  2.1679649898787134e-05 -8.9441415906017694e-06 -1.0736223704398179e-04  1.6995644734085950e-05 -1.2806216204944516e-06 1.1579745535471043e-04  2.8885397456032965e-05 3.5923124934501309e-06 1.0522802112857856e-04  1.6326043042591741e-05 -1.6386232995607331e-05 -1.6225882463173156e-04  3.2838525870128606e-06 6.9300578074699295e-06 -2.0653329119824904e-04  1.6202525923744562e-05 1.9902442838279352e-05 -1.2245793630273028e-04  1.6475544478868032e-05 4.1498155557860113e-06 1.7295577914533438e-04  2.3150941816707451e-05 1.3067780673419495e-05 1.4676703239370419e-04  4.0112900155198906e-05 -2.4124674710924376e-06 -7.7327100908090626e-05  6.6995597653161964e-06 -1.2419785401810704e-05 1.2583435212211891e-04  1.2612085294351943e-05 -5.1914051604629400e-06 -1.3050238349580082e-04  -4.7113361167760662e-06 -1.4924467193771225e-05 -1.6815463089275625e-04  4.1490030011327507e-05 1.5968238523326179e-05 5.3769814883874069e-05  1.0899501436028360e-05 -6.1744862733376858e-07 1.9633306513290171e-04  8.2342482972398069e-06 -7.1534781227519656e-06 -1.9292193265819577e-04  7.0394101387090886e-06 7.0650169351048333e-06 1.3118693528880830e-04  1.4702384647121826e-05 1.8800447177848031e-05 1.3471247916899823e-04  1.8777251160320606e-05 -2.6217981693969320e-05 -1.2783099339914666e-04  1.0400944436125319e-05 3.9430487167986839e-05 -2.5023280790242922e-05  8.2754318229630291e-06 -8.9425627717490030e-07 -2.0958283944767195e-04  1.6833855537580683e-05 1.6091122330229645e-06 -1.7861641179837913e-04  6.5700014404820692e-06 1.6067012039292842e-05 1.6084356532451572e-04  8.0925057251490409e-06 2.0250137719365386e-05 8.7748477314257740e-05  3.7888423802993588e-06 7.1637610307515539e-06 2.1272431546786035e-04  -2.5148300572147813e-05 -4.5051586360016158e-05 -4.6211945036938443e-07  2.5999413284690792e-05 2.8816137249457801e-05 -7.0099282347224547e-05  2.7465112808877625e-05 1.7104589618147205e-05 -9.2813386843396692e-05  -5.2201335324839399e-06 -2.6189458616751281e-05 -1.3634869456842865e-04  8.1409814533814975e-07 -2.1238234946689883e-05 -1.6541378060214794e-04  1.3269850241626236e-07 -8.4044676738853643e-06 -1.7139434554457565e-04  3.6725734250238112e-06 -2.6693380017326667e-06 -2.0245639408687029e-04  9.1211856735426110e-06 1.1297857502451951e-05 -1.6912332168384319e-04  -4.6214845917347522e-06 -1.2996327817021139e-05 1.7719802428755918e-04  2.0261636489172865e-05 3.0747739487291004e-05 8.9621885885308566e-05  1.5383433860112577e-06 -8.1345173915039032e-06 1.7233700136004042e-04  2.5641529876060671e-06 -5.0302800321292000e-06 2.4482848388768420e-04  3.7555433918912483e-06 -3.8505049363958286e-05 -1.0624575375549797e-04  2.3746207066859781e-06 1.1737067983362293e-06 -2.3216726901819851e-04  1.9412556480484028e-06 2.3411569487469680e-05 1.4955497000194691e-04  7.7386820049189101e-06 3.4418290406874728e-06 -1.8094908781753820e-04  1.7699639794807758e-05 9.5565097866828174e-06 -1.7821305054345249e-04  1.7416070370380415e-05 3.7967489780739367e-06 -9.0103312532287486e-05  3.5737497080858734e-05 1.0393171962865568e-05 -4.4436381721271006e-05  4.0622021131063769e-05 2.5064918440246716e-06 3.4339099039913102e-05  6.3895517387347382e-06 -7.6532065248296927e-06 1.9897150869509908e-04  1.2869798027299009e-05 -1.1690239038032628e-05 1.5782374922724638e-04  1.7054710027758098e-06 3.6915941948575286e-05 1.1722736887494431e-04  1.3904508142507175e-06 -1.2731555592608350e-05 1.2275752782229786e-04  -1.6805951228752185e-05 -3.9151717752646311e-05 -8.8044026220983947e-05  -2.7988016468641853e-05 9.3526232997767461e-06 -1.1455828896003062e-04  8.5555448186631585e-08 2.9549544392863696e-06 2.0957558987038692e-04  -5.8146584150091116e-06 4.3683959086052928e-05 5.4360863979519277e-05  6.0213228953898096e-06 -1.1943512222229734e-05 -1.6818261948960147e-04  -4.5632956005163433e-05 -1.2108908602320952e-05 5.9884623853731056e-05  -2.5145884328870403e-05 -3.1766212566624276e-05 -9.0608548045548800e-05  -3.5130048912410205e-05 -3.4230394660810349e-05 -1.3132241794826517e-05  3.4148825348640695e-05 2.7239237929360013e-05 8.5659358784530420e-05  1.7709691670503478e-05 -5.0606411692350712e-05 -3.0827969190479264e-05  2.5031885162338915e-05 -3.7959005329749968e-05 -6.2850783433976936e-05  1.4743874673461904e-06 1.1726544326660557e-05 1.7893954415154625e-04  2.6462264508969784e-06 2.2875131414962502e-06 2.4248696598707362e-04  6.3140713715494108e-06 2.7431075502104294e-06 1.6419571755971123e-04  -1.0052564623192798e-05 -4.4497639471000428e-05 1.9223636802687640e-05  -2.9188908429467373e-06 4.3308896916657989e-05 -4.2156551920053450e-05  -1.4644665973640795e-05 1.7025627441165234e-05 -1.4040899576053939e-04  -4.7593077881007222e-05 -1.2930983652495116e-05 -4.9939825631201486e-05  -5.5510176027882522e-06 4.1528922002270084e-06 -1.8692060118107991e-04  3.8527840320384761e-05 2.5132791623573770e-05 -9.2516709141560658e-06  2.4420569172743296e-06 1.0173801140022495e-05 -1.4071647423783635e-04  -9.7290720848890319e-06 -1.1723166542559758e-05 1.8484082271817215e-04  2.3456481320167808e-05 -8.2072306319078184e-07 -1.3745048273635423e-04  -4.4200200938985317e-06 1.6132810179477865e-05 1.3674797659765620e-04  -3.3295334790312670e-06 -6.5968819679858369e-06 -1.8796654855465130e-04  -6.1973642464163923e-06 -4.6238770590645059e-05 -7.5272924311763217e-05  1.7464208652459244e-05 -2.1264621629686231e-05 1.5058057322126588e-04  -3.7118456440814445e-05 2.3939251029864144e-05 7.4533772494773931e-05  -1.5709717339461971e-06 -3.8872001953692519e-06 -2.1827894935901639e-04  -2.1441403745853411e-05 1.4178696850013339e-05 -1.4447451542932987e-04  4.8391152943332198e-05 -1.2794405124959543e-05 7.9203574587632564e-06  2.2554513647830461e-05 4.1929802413253692e-05 -8.2855821862753877e-06  1.0679972303950820e-05 3.1952938677193254e-05 5.1601508362371509e-05  -3.6195382672007825e-05 -2.0774424930804304e-05 -8.6510585664283699e-06  2.9061313553187672e-06 -5.0892206458422241e-06 -1.9195005780044797e-04  -3.3072530489668564e-06 -8.6298930132520144e-06 1.9490681897621788e-04  6.1684295116643712e-06 -8.3907050678200325e-07 2.1544726723101093e-04  1.3968658822468923e-05 -3.4069312284094399e-05 -8.2109853434773585e-05  -4.0839616663451639e-05 2.2721578175246583e-05 -9.8584776037224814e-05  3.3712419304866199e-06 4.2022562915736571e-05 1.7988079755186580e-05  1.5056802321951243e-05 -6.5874559138744443e-06 2.2389697993712102e-04  6.4683335339673590e-06 -2.9219802535303472e-06 2.1825765476667926e-04  9.1027185827467290e-06 -2.6703526793868810e-05 -1.4447249112630676e-04  3.9690328196608895e-05 4.3174499792190121e-05 2.1130825233954813e-05  3.9800349940419007e-07 2.3232070191445316e-06 -1.0446889765590057e-05  1.4670773617742119e-05 1.6673535336652047e-05 -1.2750447256585485e-05  -2.3269535880810809e-05 -5.2469485471316617e-06 -9.8818866777577608e-06  8.3113137774125464e-06 -1.6139304130545830e-05 -8.8223588186325423e-05  -1.3838415421456876e-05 1.1533997640387400e-05 -6.8747667367573514e-05  5.3000368824789241e-06 -2.0381716084863487e-06 1.4784629790916165e-04  2.1092471768288393e-05 -4.0666033560213487e-06 -1.0701256997823231e-05  -4.0903363156824614e-06 -2.0637687823305052e-05 9.2452399397665347e-05  -1.1530017810062276e-05 8.3285641931173422e-06 8.3977028952806162e-05  7.2109346330227331e-06 2.1053708997315660e-06 -1.3695050491801297e-04  -8.9489442251857440e-06 -1.2614737279129346e-05 -1.4279782865604670e-04  3.1465699579571953e-06 1.0898926518022927e-05 1.0033888679561898e-04  -3.2386976119556136e-06 1.9772192168445239e-05 6.4546852371868512e-06  -5.1519506788695318e-06 -4.6345009636066980e-06 1.8241292902306447e-04  2.8962572759378766e-06 1.1456916571893658e-05 -1.1877839925953603e-04  -3.4011064952334409e-06 3.1071693248197892e-06 -1.7770205422954556e-04  1.1293825813643017e-05 -1.5072600579353540e-05 5.8100170078023852e-05  2.1087723288281918e-05 1.0405028729961419e-05 7.4611095547738484e-05  -1.6418344667481609e-05 3.4226582455954647e-07 -1.2136968113039625e-04  1.2807988956514890e-06 -7.4592681589806547e-06 -1.7975920755506185e-04  -5.8864630937106193e-06 -3.1802414247404369e-05 -8.1336699933743202e-05  -1.5986627198483883e-05 -1.5737403977665259e-05 1.2147155739569618e-04  -1.9056021696155047e-05 -2.6780412598224983e-05 3.2719075886989924e-07  1.7678301795299786e-05 -7.8328804296500301e-06 -1.3716101774752958e-04  -3.6499473193702548e-05 1.1925158032538770e-05 1.7606180310179917e-05  3.1144601644103692e-06 -1.2595382190323420e-05 1.6455613140361816e-04  2.8217691356791980e-05 1.0698309667059541e-05 -9.0484269583766981e-05  -2.0836939096709066e-05 -2.7571342752107581e-06 1.1456948620034979e-04  -2.3553053985665798e-05 2.9044383915087639e-05 3.2249475422244239e-05  2.1784706989836056e-05 -7.7430956022659789e-06 1.2681244894411844e-04  -2.8286910524980730e-06 4.1919989223579535e-06 1.6803502777436161e-04  8.9745775163323899e-06 2.9200264679431358e-05 7.8821225770453774e-05  9.6857945051392687e-06 3.3469538015212067e-05 -7.9555729198848432e-05  -8.9270908011525257e-06 2.4693387476778313e-05 -1.0643320435206839e-04  2.5697680004990184e-05 -2.8685000878093795e-05 -2.8876905408019713e-05  -6.4391371135523995e-06 2.0739893570919243e-05 1.3095549902913267e-04  8.0692070260548365e-06 -3.5661425977399590e-05 2.4649127937114608e-05  8.2491561218166483e-06 6.2480813467559543e-06 1.7935322065324946e-04  -2.7052063458449756e-05 -1.7185490293244893e-05 -1.0100493394694422e-04  -2.3506474462726556e-06 -9.9666950186056194e-06 -7.3416426875279553e-05  -6.6290914593167126e-06 -5.1572451498293475e-06 9.1539674235318624e-05  </DataArray> 
</PointData> 
</Piece>
</UnstructuredGrid>
</VTKFile>