<?xml version="1.0"?>
<VTKFile type="UnstructuredGrid"  version="0.1"  >
<UnstructuredGrid>
<Piece  NumberOfPoints="201" NumberOfCells="657">
<Points>
<DataArray  type="Float64"  NumberOfComponents="3"  format="ascii">-0.0003985214330972405 -0.0003312388306796757 2653.588042896601  -0.0005565324304059036 0.00325721449496179 -2653.588064902539  140.3686139687227 0.004477528752186102 -2523.702157328825  266.9871762679292 0.005677847224321134 -2146.766495619301  367.4582126212945 0.0003728927028384074 -1559.696793856309  431.9541780918541 -0.0009439185104831666 -819.9722518685428  454.1780557676523 -0.002166081909810932 -0.000405276909985045  431.9537920908527 -0.000456926627124525 819.9725570108704  367.4573693400417 0.00231522892240656 1559.694210151136  266.9877647077062 0.001385996373655904 2146.76496542327  140.369101841973 0.0004075726167332395 2523.701766736137  177.8381114728834 -829.3600923144087 -2307.043895317002  176.6770653745033 644.2227555697476 2364.361616703373  432.3248666423805 -738.44409659446 -393.3608600150916  311.2937823653061 -805.6993187151081 1769.32876871812  393.2319525310713 746.8445137892353 1115.749110987912  391.597449567765 746.8360225704092 -1135.211184490915  198.5757585988652 742.3496932815561 -2276.675288882819  68.42611631792514 -742.3119291454018 2523.728407193763  309.2739139929037 -742.4062963634962 -1806.75602400088  215.3017501392974 -1456.559854690986 -1867.224681241085  319.8832702524829 -1427.757845794831 -1286.008373460437  219.3672455952122 -2040.860497129344 -1235.245114282959  309.0716168565393 -1915.441111353373 -608.3065166621172  193.9588580603441 -2429.783456454491 -516.7320599830961  276.1549791078276 -2180.67113038496 130.709831453126  145.0714889439922 -2595.929643012192 235.8336098699269  210.4087372174396 -2255.301267048159 894.656752654209  75.80040726494224 -2527.137657258911 951.3847488964577  134.6505595197058 -2061.351037069778 1571.844992168369  -5.232580088437434 -2214.20161397212 1574.895050814962  322.6358983699516 -1771.819797301683 754.9776505565632  309.2740461186055 742.4057402103009 1806.756885637299  313.3880556238273 1437.169151505279 1330.091437610442  379.5060636544423 1377.24273296603 602.0027720542495  50.36650472068048 -1645.191630317468 2106.513530140738  184.4272724577093 -1442.732347349498 1986.178824403114  215.2778630277409 1373.485837540503 1924.974438031686  207.4554929711893 2009.306271050984 1348.371005461122  433.1518162712036 -720.4461007097029 393.3101280035213  381.9386484486229 -1488.750497851704 45.54783249133676  394.1020360810427 -747.5116587604768 -1104.794793090318  68.42570893826439 742.3155247615711 -2523.731223654439  306.1969123943106 723.7795636271512 -1831.510903101419  310.989675907032 1429.430816325694 -1356.78532891208  94.1286801649116 -2451.733848662335 -1071.513195652504  -65.85582967826581 -2557.15697217095 900.6671734900051  91.85355705991873 -1493.877659170363 -2162.841617135469  376.9127095235146 1393.661533784835 -622.1251757627662  281.8947206446861 2013.223516879313 -748.8594272432617  200.1626124566654 1959.243211903986 -1450.615026516468  158.0441725331473 2439.998936196071 -807.3862786870068  69.82019171947911 2291.105250555033 -1411.621947026751  20.44152936828524 2641.53347280357 -732.6688817689027  -71.57636858142278 2357.301739533791 -1303.070178363617  -118.1111097955157 2594.317596262713 -552.5590415248413  -208.1376817156912 2215.696777839694 -998.737822020618  -22.71801019201981 2747.472501122856 48.92890078063392  -145.1026726541027 -2128.606935779523 1452.191055185292  -200.4346379880307 -2354.051640215083 718.93422522965  -244.3831374365385 2302.614344905894 -269.8977305028327  -322.7837285760987 1801.227597632774 -684.9020268600137  -343.8250537893892 1797.262070879517 61.28947722472006  -403.2743713604888 1185.839760309431 -428.1030860469364  -408.7984739435325 1125.599065328711 399.4441999370552  -358.2708829079747 1123.91581519426 -1219.055018280745  -330.6304917405856 1663.076679351053 859.6885379498859  -426.6110967826635 491.5922028749291 -777.4219421942995  -377.6526556911681 925.2787549379037 1173.704303213487  -363.1527713566217 315.5637794063415 -1564.442814340576  -407.7863313365438 -357.0231570888647 -1116.613414762009  -280.9724789934749 1394.655023346598 1593.289225217195  -62.74752868972831 -1139.894843266697 2387.169498512571  -273.6997183738878 -1820.511740046918 1184.516974743027  -326.3367848352253 -483.605535697545 -1785.818203268783  -352.5773465600255 -1135.107389993931 -1265.197994964432  -436.3986559551703 311.9842850497934 670.923416968909  -151.8716986198575 1834.914272340816 -1767.187154217055  -310.748148938967 595.5374172826978 1848.210325861489  97.70397583259901 1854.075484382229 1875.735745438456  -420.4944654557186 -929.9317956250085 -449.7340346509471  -264.4017635855243 193.1494262487557 -2149.612784152222  -206.0039626711784 1061.133763587325 2132.136871881793  -254.0885158808932 -1221.017676299567 -1857.887605925252  -266.0704588883742 -1818.070787868948 -1245.732023200039  -224.2468684673884 2047.260883636707 1194.842810270154  -114.5151125368461 -2656.705374390651 170.7519112780463  -216.9448871479946 178.6649581959329 2324.980172601744  -320.5419042433046 -258.1373105500073 1863.484529321575  -153.5826669334875 -1823.167592698453 -1773.436624229134  -154.1057889136002 -2324.31253608418 -1098.385822457612  -132.3326145491804 -1154.45636534608 -2281.294744328772  230.3576306916545 2370.345517320043 -74.86476150179887  -309.7583492885904 -1952.766032671866 470.41383732566  -372.934385890092 -1318.860405845866 823.0886402037114  81.36524474851947 2387.165100220981 1230.916559772616  -29.37042703092593 2152.932367480237 1643.382387146542  -10.17349566960419 1622.222255257889 2142.480467417826  -123.0528851632549 685.3880045392582 2467.354318403512  -205.2241570927629 -1488.741195580003 1882.274116277785  107.1222190331337 1812.616483632884 -1895.779175777144  -254.6433600874782 -2198.15059255447 -579.1516023317175  -33.64051227862079 1390.501912139855 -2281.333550209864  -74.53997603097409 596.1931995073812 -2553.685088710173  -50.55795530355962 2569.94572315166 900.5260007068791  -95.97341822131607 -421.9879421755023 2561.550142257293  -32.83161284765906 -2254.491633206967 -1508.973941672861  -207.3664768068871 -678.1740738066025 2268.526691107033  -319.6788668773534 -1091.883449342268 1563.667359910592  -397.9504501593509 -524.8530911787335 1174.657626268882  -435.4081937463536 -681.3901861755224 372.3218320484103  -452.2240378461511 -88.63099357196485 -230.4973896273124  -174.4699069954536 1181.460359199952 -2168.986629789166  -264.6116528393186 1306.906861941521 -1750.302593984495  -38.63929069047848 -2589.483321501396 -868.0025254968689  -15.4545403549659 2032.722903932283 -1786.059914361125  181.1747920863495 2418.83823942093 692.7581686937747  391.4677544736884 -714.4862285025115 1155.925345375163  22.6978334744359 -779.0230081296462 -2541.546862243326  71.82181571990337 -2683.579486571353 -408.5657479889092  -138.3385431084412 1757.352987213152 1875.120782867395  434.1706676242441 692.3500116859136 -401.7461403809517  290.2516353779038 1994.950131057648 682.474491463903  342.3879599793253 1808.146606458153 -30.32656354938641  -346.8181242489374 -1635.284426230113 -670.86993149939  -150.5396449190863 2587.18400881111 206.5085826770374  -252.5378497588674 2231.248703204944 485.2948078179947  -24.63839992133252 -1681.929713448871 -2095.119456196252  -105.8513735795772 -306.9860696788571 -2563.490379568683  -223.1469998987924 -492.7110091207824 -2261.920903853992  104.9695717720063 2673.2902063523 -135.5224749686655  12.30150956786694 -2733.341515373676 294.7853772673102  250.8500071844047 -1738.364916242163 1443.554541968017  434.9382096929161 701.2084044490834 356.5687702625733  198.687934089335 -737.0009925760828 2277.95507457515  -384.1910260290478 -1466.512366641603 65.5154829359719  -81.31698329539293 -1815.113306789957 1936.86321912117  221.3295399757576 1331.5627046896 -1928.93983697255  -389.1509785955428 219.3206242820704 1351.885268809768  101.989990626958 -2048.653419373146 -1668.18993997701  111.272656309316 1321.078901189159 2235.114958917907  64.72904786510153 2661.272581939731 557.5112456452113  -282.5330608466977 1724.815036521627 -1245.362529977537  379.8728703948901 -1326.296284164524 -693.4615749924606  -6.951336415507429 715.5175865232746 2561.967906284541  344.0766240706409 -1290.773146003473 1204.912480813431  -440.9836547745688 655.8124195491723 -60.35360848146446  -234.8382196845489 -2355.299497314605 25.59157797272172  -143.4235603420792 -2570.659543844331 -439.6246316721295  407.4879074124176 1215.574274077047 -18.46249030464501  -101.3960562768982 1355.360764022108 2232.053721153975  126.1726246775755 1230.834620650883 -2255.927146441035  -153.1430543439745 202.1032494055456 -2490.610195359709  -166.1125228343333 2407.220516168232 842.883162415346  386.3387319127656 -1233.556540449236 729.7058774109485  -30.94941172519204 -2731.068563352348 -266.3717807414487  -291.3087574570312 715.2466838816243 -1915.595999992965  -199.0958281604899 607.8110870175975 -2311.952092694344  -127.0451089717889 2213.362848048835 1390.749856739949  -319.4343342642972 -1950.441848069345 -148.4228303701444  -0.0005449305375485947 8.838972439779392e-05 -0.0008736863625350498  -144.8348725303628 -1076.670353961983 73.50323354139839  218.9940782081129 419.8907525364124 -12.13166700856713  -87.24849008498245 1131.671563755402 584.5876627006697  163.2398140686955 -802.2422989927253 531.8334078953425  -106.3474461096836 117.4231399966885 -1181.528279584189  -225.2351073098433 213.7091951760082 0.9768412626101597  43.03572193410471 1280.062235564994 -507.6219656302405  152.1316986177196 -630.808656913084 -794.9431522341378  -118.334221772114 -119.8558289473051 1145.967528275278  113.4794095250782 952.4589194609686 924.0251013691285  -41.9054139859025 -1086.921620032482 -1003.742850170303  37.48537823557547 -1569.815769676612 4.908053943860575  9
[...]
<PointData  Vectors="Velocity"> 
<DataArray  type="Float64"  Name="Velocity"  NumberOfComponents="3" format="ascii">-1.7830423446505435e-11 -1.4791486639836627e-11 -3.4020192914655854e-08  -2.4899472652970687e-11 1.4592758329246050e-10 3.4019223736655167e-08  -1.4593701920980408e-09 2.0057696912551075e-10 3.2804474808690670e-08  -3.2141960236750853e-09 2.5431703556753977e-10 2.8924561852404379e-08  -5.2344210072488121e-09 1.6686840203721202e-11 2.1925975758521868e-08  -6.9973612231798539e-09 -4.2363220981629418e-11 1.1924352352773426e-08  -7.6010851612358486e-09 -9.7119386944432964e-11 -1.8133158435765998e-11  -7.0146552446018131e-09 -2.0443697046003593e-11 -1.1910693907260002e-08  -5.2721903044791345e-09 1.0373750429305872e-10 -2.2041666433909944e-08  -3.1878899880815527e-09 6.2098588997027168e-11 -2.8993132278250812e-08  -1.4375547931224648e-09 1.8280393622427938e-11 -3.2821985424328295e-08  -1.6790705787035693e-09 -1.7152296855860727e-08 2.9219408007391226e-08  -1.7835185912351763e-09 1.3384808287732801e-08 -3.0429629095972042e-08  -6.5189647395168686e-09 -2.2414618355970493e-08 5.5803769407780806e-09  -3.6254174241011550e-09 -1.9805263634491796e-08 -2.3485774051916469e-08  -5.4979899116694388e-09 2.1044416037388617e-08 -1.5547677244893737e-08  -5.4578288968214435e-09 2.1048132510180097e-08 1.5747533560760057e-08  -1.9534923045827584e-09 1.5783537246408147e-08 2.9114190483835129e-08  -6.0272845779408778e-10 -1.4092402612893068e-08 -3.1628798731468589e-08  -3.7175518319842689e-09 -1.8318460016012470e-08 2.4166247740420737e-08  -1.5935223023295927e-09 -3.2731861680461500e-08 2.2153303480560782e-08  -3.0300676932777072e-09 -3.6822871116201565e-08 1.6016436916002022e-08  -8.6147564513782002e-10 -4.8178413769946575e-08 1.2980271636232173e-08  -1.9614345783120801e-09 -5.0273466656943943e-08 6.8260276858159394e-09  -1.3843838985983270e-10 -5.8070635869607358e-08 4.7924697108391737e-09  -1.0471770095148999e-09 -5.5884747231666167e-08 -1.3643863379031506e-09  1.8507735404400498e-10 -6.0619483257694951e-08 -2.0566995752464998e-09  -4.1743257656352818e-10 -5.3775990467777665e-08 -8.8379840239264434e-09  8.7764255171511877e-11 -5.6065178393203775e-08 -8.2838112460842992e-09  -3.3354217841920456e-10 -4.4921078052318519e-08 -1.6044853666016162e-08  -9.5738959312864417e-12 -4.6681901203821054e-08 -1.5186751519859727e-08  -2.5083554886905389e-09 -4.6977182827377306e-08 -8.8529483023104131e-09  -3.7116631826774787e-09 1.8293545356523561e-08 -2.4127661156909995e-08  -2.8597497385568832e-09 3.6665466807387141e-08 -1.6436490356816454e-08  -4.2141511171321958e-09 3.8959368068899172e-08 -7.8194725081416398e-09  -2.3133051499497928e-10 -3.3485245800642991e-08 -2.3528432284466089e-08  -1.3445880411044583e-09 -3.1387355127503220e-08 -2.3441530938087114e-08  -1.6433065483504758e-09 3.0649383491989768e-08 -2.3079934718903522e-08  -8.3418925782847502e-10 4.6583791873147309e-08 -1.4264128934586992e-08  -6.5638760015877784e-09 -2.1753469021838329e-08 -5.6130915265362549e-09  -4.1674738651842649e-09 -4.2514317650922087e-08 -6.1767759263358725e-10  -5.5459601819652411e-09 -2.1104779866408798e-08 1.5322772038954940e-08  -6.2095491138885927e-10 1.4253423957860135e-08 3.1502702742722082e-08  -3.6124445547548560e-09 1.7724481244373437e-08 2.4438183979742614e-08  -2.8395938557542833e-09 3.6263199942318005e-08 1.6728742243483159e-08  2.5306248188658756e-11 -5.4417483647079076e-08 9.5856152019296870e-09  -1.0150564185600807e-10 -5.6742454120235644e-08 -7.7342994460717576e-09  -5.4860253788320045e-10 -3.0181006947711130e-08 2.4773793260881927e-08  -4.1915860388721212e-09 3.9334773459488234e-08 8.0121416982358981e-09  -1.4190886292134443e-09 5.1039211832503555e-08 8.1324508860845501e-09  -8.5095742504278760e-10 4.4810882703769876e-08 1.5408352067319606e-08  -2.1627738069261458e-11 5.6360916475883767e-08 7.3978510570453917e-09  -9.4292966014955695e-11 4.9342373515595615e-08 1.3362567784744897e-08  8.6073016198833930e-11 5.8569568531135936e-08 6.0713498364781737e-09  9.1921520434260153e-12 5.1191923994552058e-08 1.2089123337503280e-08  -1.5897441135645525e-10 5.9217632971998858e-08 4.6947900106402137e-09  5.2155823727116324e-10 5.2337512543657561e-08 9.9496333973337028e-09  -6.5133319303536997e-11 6.1804470701934469e-08 -4.2242179159564767e-10  3.2427618894559321e-10 -4.7117980861444438e-08 -1.4603594050259718e-08  1.9332351424716000e-10 -5.6127862507398603e-08 -6.8610065224520738e-09  5.5281958383623181e-10 5.7348865638830859e-08 2.6243474312975968e-09  2.3517048077521418e-09 4.7785536733306564e-08 7.9797875036688895e-09  2.6844148119453360e-09 4.9234105546496135e-08 -7.4349538368087769e-10  5.1824232942410112e-09 3.4501985053618455e-08 5.7632073749400315e-09  5.4146778305343655e-09 3.2950846777922681e-08 -5.4272243880987222e-09  4.1886107928907337e-09 3.0364616774843947e-08 1.6025977656561677e-08  2.7726690380634568e-09 4.4194429144851944e-08 -1.0350734103235787e-08  6.6899885246154908e-09 1.4613553136970191e-08 1.1127943421760274e-08  4.8823511588682709e-09 2.5696688726267743e-08 -1.5990804373766196e-08  5.0553861349261705e-09 8.5072871036790961e-09 2.1921018590220843e-08  6.1776140201512258e-09 -1.0170951752337612e-08 1.5929216552686675e-08  2.4078472010703693e-09 3.3807405996737378e-08 -1.9493287532392375e-08  4.7343183464013341e-10 -2.2143065032272759e-08 -2.8761478073604756e-08  1.7485245896527635e-09 -4.5179716713826859e-08 -1.3459022558837030e-08  4.2310151270965673e-09 -1.2100145970022193e-08 2.4408696030591001e-08  4.0648559469206654e-09 -3.0335872181057078e-08 1.6575142013345487e-08  7.0464459842322349e-09 9.3810795513355239e-09 -9.7609825948636203e-09  6.9164653269646418e-10 3.9744434557154332e-08 1.9091497887321016e-08  3.7988861654745482e-09 1.4590473962606094e-08 -2.4934451572860689e-08  -4.0292867969235037e-10 3.8766061869527893e-08 -2.0046815021610515e-08  5.9857896764281730e-09 -2.7754298505221858e-08 6.2230745218331017e-09  3.1076781703126872e-09 4.5450076664317885e-09 2.8854038485064409e-08  1.9097186180735484e-09 2.3235779935671073e-08 -2.6658376323851011e-08  2.2815090773238763e-09 -2.8259868416990400e-08 2.3064207517376152e-08  1.6505690996775414e-09 -4.4627302025969319e-08 1.4058245623456427e-08  9.0502669415803435e-10 4.8642274807837968e-08 -1.2568205198700165e-08  -2.2473633122716049e-10 -6.1220916186964010e-08 -1.4558094248032057e-09  2.3687442329767106e-09 3.8363098177226580e-09 -3.0761304975876761e-08  4.2090898143420424e-09 -6.2598057435598733e-09 -2.5694169516141134e-08  7.1783160998529865e-10 -3.9466152656616883e-08 1.9281347075583338e-08  1.3134062345467703e-10 -5.2940941152979704e-08 1.0390637260293218e-08  1.0303109475113872e-09 -2.3290150812091584e-08 2.7612087594842788e-08  -3.5048889537124593e-10 5.8374888093960600e-08 6.9372021425206379e-10  1.9370426809239919e-09 -5.1569395611442658e-08 -5.2444747421904419e-09  4.1949439981388577e-09 -3.6756782250477694e-08 -1.0679708801801768e-08  -4.3799490275318656e-11 5.2412470488261750e-08 -1.1319406746562376e-08  4.7514605145646539e-11 4.5356461194425690e-08 -1.6229334801697239e-08  6.9570803991658837e-11 3.2489333664709090e-08 -2.3792026601401407e-08  1.1900753551287006e-09 1.3771108182911025e-08 -3.1282523797649967e-08  1.5556049135967629e-09 -3.3228043082099994e-08 -2.2193113424411895e-08  -4.7497755310148537e-10 3.8019081231270647e-08 2.0433825236408007e-08  8.8440690387034799e-10 -5.5178126479348386e-08 5.8877782194500230e-09  2.0169141390023127e-10 2.7208644067006237e-08 2.6366060683524720e-08  6.5149036910690042e-10 1.1402133407845864e-08 3.2252041551781528e-08  -9.4774833478414969e-11 5.6951246970632502e-08 -7.7000096269856285e-09  9.1483389625603541e-10 -8.3972192087272049e-09 -3.2906104732958603e-08  2.2227120126657674e-11 -4.7993884882424878e-08 1.4372789590491463e-08  2.1179513317904771e-09 -1.4274850681787644e-08 -2.9330074834064756e-08  3.5007259585020094e-09 -2.7532635530752240e-08 -2.0245688424925163e-08  5.8360242415124010e-09 -1.4914836505700824e-08 -1.6617469561315330e-08  6.7318294376872931e-09 -2.0705259018354419e-08 -5.2909629272508166e-09  7.6002803694191380e-09 -2.8051236402562097e-09 3.3859277562786439e-09  1.4130787551909447e-09 2.4951256227737985e-08 2.6419826267065910e-08  2.3790976017869296e-09 3.0730488753317819e-08 2.1563426905922634e-08  -7.2785419945991653e-11 -5.7324979738438521e-08 7.3180924167945402e-09  5.5762018729897340e-11 4.2165073962624166e-08 1.8085629720931673e-08  -1.0314281554913032e-10 5.6905688689228598e-08 -6.4151252945819100e-09  -5.3972688253045889e-09 -2.0152519478677722e-08 -1.6078854266859938e-08  -1.9025062390065066e-10 -1.4534881220026006e-08 3.1610302796992994e-08  1.7274837881249472e-10 -6.0859704049841882e-08 3.3422065705031057e-09  6.5864734140477781e-10 3.7453883925924853e-08 -2.0603260522987202e-08  -6.6372822431196043e-09 2.0889976981429292e-08 5.7543781118502841e-09  -1.5644801509126859e-09 5.1171479902982596e-08 -7.4717114960479111e-09  -2.6486854211535378e-09 4.9474646319550608e-08 3.8280004128954251e-10  3.0921025837829534e-09 -4.4436164910902065e-08 8.1635180983885295e-09  -1.9128517548446364e-10 6.0441053489341520e-08 -1.7890329736413069e-09  7.1308616426893224e-10 5.5614489015395642e-08 -4.9089875571031964e-09  1.3904647751222402e-10 -3.3774056230949654e-08 2.3047105510412675e-08  1.0226207394608461e-09 -5.9379158628358459e-09 3.3002541801818769e-08  2.4145236930497725e-09 -1.0556693543147423e-08 2.9712494111823023e-08  2.2969826686501731e-10 6.1347214879375255e-08 1.0416335802459064e-09  6.2052953086435592e-11 -6.1513510253673106e-08 -2.3757308141079759e-09  -1.6616082644023242e-09 -4.1558934687756019e-08 -1.6525166305445299e-08  -6.6693644550247926e-09 2.1202095630730340e-08 -5.1070463734081622e-09  -1.9375437401275674e-09 -1.5436393357407166e-08 -2.9217501931801626e-08  4.2326572887966754e-09 -4.2170748179125737e-08 -8.5383373481623462e-10  3.7476573830103822e-10 -3.7684789309446069e-08 -2.0881203577949134e-08  -1.7774479545855378e-09 2.9652847275577966e-08 2.3287189144079205e-08  5.7702669920764332e-09 6.1904798588420283e-09 -1.9253017350702947e-08  -2.8279223076988468e-10 -4.3675016870622157e-08 1.6990413068175675e-08  -7.4577550344508824e-10 2.6807501193320001e-08 -2.6347143319172709e-08  1.3560683505726682e-10 5.9733223722505960e-08 -4.6035575595599875e-09  1.9419117615864124e-09 4.2844625738464334e-08 1.4384756503836538e-08  -4.3741424861745503e-09 -3.7388830902088769e-08 8.9876778602975597e-09  6.1535236663872675e-11 1.3857774622249279e-08 -3.2113365762093607e-08  -3.6540142521569442e-09 -3.4296208710494252e-08 -1.5481738314459117e-08  6.8281816221032569e-09 2.0068235386897916e-08 8.6233876277298931e-10  3.9487376173199027e-10 -5.8378888466501814e-08 -2.5775979490775242e-10  -1.6856686927103244e-10 -5.9789793513764815e-08 3.8030729187186070e-09  -5.1655224401508164e-09 3.5638687568489910e-08 2.3954339545417495e-10  6.8387067925953559e-10 2.7421947614644748e-08 -2.6140163732260575e-08  -9.2280501588371299e-10 2.4904042930484982e-08 2.6958392676155950e-08  1.5250881298726042e-09 4.3025533577934075e-09 3.2366469149793933e-08  9.8837061624629808e-11 5.5802425469236889e-08 -7.8070510528186169e-09  -4.6415857903332065e-09 -3.5050266987481695e-08 -9.6925600162000824e-09  -7.6420074724067971e-11 -6.1593903212454320e-08 2.1471179313758073e-09  3.3051201460816325e-09 1.7032155087311388e-08 2.5345204286340714e-08  2.0048620835589783e-09 1.2805037628253277e-08 2.9837259412181582e-08  2.5263168252052264e-10 4.8879526180560782e-08 -1.3629054634741634e-08  2.0046162524064385e-09 -5.2088253586927348e-08 1.6156575507400872e-09  -2.4410163326982800e-11 3.9001846629578020e-12 -3.9111999876651265e-11  1.9829683120599646e-09 -3.2563223815713084e-08 -9.9084399597899925e-10  -3.6336730192072819e-09 1.3195884850700538e-08 1.1294222262165633e-10  1.1457210629163359e-09 3.3344800594940478e-08 -7.9131146015430041e-09  -2.4090431532764045e-09 -2.4332853210558421e-08 -7.5139725511838665e-09  1.6483128672753264e-09 3.3086658991531563e-09 1.6939812678056810e-08  3.8514528092038571e-09 6.7940482260413199e-09 -3.9214680124927007e-11  -5.3555815033122337e-10 3.7354690311868670e-08 6.6861603894421340e-09  -2.3063568121479514e-09 -1.8958341324716092e-08 1.1204372570685275e-08  1.8831821099802083e-09 -3.4970826338384498e-09 -1.6444866617901105e-08  -1.5640987422864093e-09 2.7609510881784284e-08 -1.2635201918279022e-08  5.4109852061551279e-10 -3.0871444563499714e-08 1.3403354545684685e-08  -3.7998815668397155e-10 -4.5200948489665332e-08 -8.2079018880298046e-11  -1.3297136630831149e-09 1.1742086988014002e-08 1.8564552255815677e-08  4.4591147832436864e-10 -3.4269104587929659e-08 -1.3126639074967365e-08  -1.1954003922107683e-09 -4.0704530918537871e-09 -1.9972318238331130e-08  1.9915452877562690e-09 3.5112915045352183e-08 6.6361970318352153e-09  3.4880666323709329e-09 -1.7127597012751899e-08 1.0507673313737456e-08  -3.6861128991220734e-09 2.2330220677127783e-09 -1.3653796749307900e-08  3.9590118948543671e-10 1.9928825199776975e-08 -2.0309226052044582e-08  -4.1994456318259855e-10 4.7071412643696220e-08 -4.6311337134966931e-09  -2.6393244603487199e-09 2.8883393005323868e-08 1.0954691210809171e-08  -2.2588064613290856e-09 4.0641387955389340e-08 -9.7535084794382670e-10  3.3711864653624913e-09 1.8687766946030171e-08 -1.2702683860671547e-08  -4.4043030612508830e-09 -1.6326026261398475e-08 2.0186979783711943e-09  6.3930412118354946e-10 2.9723045831355124e-08 1.7355102869989461e-08  4.1270487223361572e-09 -1.7659931565142704e-08 -8.2418564459204462e-09  -4.1678980672328012e-09 2.9842413530620357e-09 1.2645119003307626e-08  -2.2798939539308860e-09 -4.0043472416250157e-08 2.8662870138355635e-09  3.7963785909886535e-09 1.5044415787204465e-08 1.2713513491543525e-08  -7.7569796635877304e-10 -1.4279919561265999e-08 2.2110326388459211e-08  7.6380793888631793e-10 -4.7759167158697659e-08 5.2899373290417848e-09  6.6393773552876045e-10 -4.9669233425722953e-08 -4.8386977462955799e-09  -9.3803559632299797e-10 -4.3788610555020718e-08 -9.9817742556941158e-09  2.6249081368117727e-09 3.9783461037920352e-08 -4.4530833690047049e-09  -8.2191204778588218e-10 -4.2770491241225672e-08 1.0329660668944467e-08  4.5103315192243119e-10 5.0580603971703522e-08 2.2979812379307222e-09  1.9960537108757784e-09 -1.8737199437890078e-08 2.0325649493902500e-08  -3.7185550036363663e-09 2.6436863937230177e-08 -9.3278133403443986e-09  -4.8228819896806245e-10 2.5376200205474370e-08 -2.9724498931145651e-09  -1.5560180483975931e-09 1.3899493361875164e-08 6.7995939650941388e-09  </DataArray> 
</PointData> 
</Piece>
</UnstructuredGrid>
</VTKFile>