<?xml version="1.0"?>
<VTKFile type="UnstructuredGrid"  version="0.1"  >
<UnstructuredGrid>
<Piece  NumberOfPoints="201" NumberOfCells="657">
<Points>
<DataArray  type="Float64"  NumberOfComponents="3"  format="ascii">-0.01920903504133279 -0.008293018870257995 946.7903825328548  -0.009705052758975281 -0.001142367541899796 -946.8085422175826  1779.901288599 0.005123619493209512 -900.7229523335209  3385.001639434149 0.0009343323689516148 -766.7209097495875  4658.035757521885 -0.0008097122080754432 -557.5963958182906  5474.918962894126 -0.002359956882448624 -293.3256267338564  5756.318409992378 -0.01105245577508273 0.004458374974778309  5474.92359264 -0.01445543095107292 293.3211902413644  4658.034901378718 -0.005735701807364635 557.583597242681  3384.995304244937 -0.001784171267875522 766.7259967442826  1779.903082060609 0.01088536511491363 900.7009619344095  2254.739798310512 -1675.278693698243 -823.7427784027257  2240.134740145538 1301.330601421315 844.0935803316868  5479.229299322331 -1490.64485995543 -140.7447456750867  3946.128281205339 -1627.015322073248 632.3309001411766  4984.15729182125 1507.815570443812 399.0617559794423  4963.463596951037 1507.780683561422 -406.0084863788622  2517.64680196715 1499.483729393531 -812.9458342663133  867.6221432438978 -1499.642598152687 900.7132488986036  3920.595873688893 -1499.224062021954 -645.6638330550229  2729.098286003256 -2941.599826040013 -667.1804586891399  4054.242941935117 -2882.74890257343 -459.8433508427952  2779.881434800728 -4120.79216625441 -441.6980767601901  3916.430523429862 -3866.920072671368 -217.6156332184341  2457.4294256298 -4905.518384437342 -184.8478885446584  3499.003553103644 -4402.302729099438 46.76507811872791  1837.89706141309 -5240.933905462647 84.35985564835582  2666.050310007383 -4553.46042502856 319.9892631288798  960.3941576098886 -5102.556340535445 340.2387698747334  1706.429128371039 -4162.697541856155 561.8401361183865  -66.30871053025675 -4471.441123976585 562.9146563265688  4088.545023219554 -3577.031516698217 270.0547119768466  3920.616759415923 1499.213970438215 645.6630883233848  3971.933217607063 2901.791300717913 475.5952130327158  4809.473992424252 2780.282092371765 215.3643318248051  638.4394137026252 -3323.017518716163 752.324554696874  2337.873124136552 -2913.853914902876 709.514314760145  2728.868859398487 2773.881698539989 687.7637704431399  2629.012082704067 4057.22257694345 482.0775502719655  5489.729682347564 -1454.323543589147 140.7281693197596  4840.145854246155 -3005.293791817243 16.29906434771706  4995.210052322316 -1509.158288541815 -395.1350564504821  867.6192653545056 1499.64804791568 -900.6919470459395  3881.615618961857 1461.634232163349 -654.492548587314  3941.543777378803 2886.191672903091 -485.1239011066025  1192.662930144307 -4950.414082138669 -383.1734710052122  -834.4184223233054 -5163.156221918374 322.1147033149752  1164.41387206804 -3017.443792995695 -772.3909861441078  4776.627327097232 2813.460623023797 -222.5641021057559  3572.015101896439 4064.473688868488 -267.8744719529228  2536.686303460504 3956.248516331878 -518.5826333288305  2002.445204534563 4926.392269709436 -288.77274169788  884.7723460161315 4626.473023010978 -504.6453906489821  258.9493360206972 5333.352069337607 -262.0517747312764  -906.987455243213 4760.024247171307 -465.8723452888681  -1496.404931231895 5237.840919823664 -197.6550264883768  -2637.393175762699 4473.628373953933 -357.1918017337151  -287.8284517488543 5546.951299141947 17.50857774150058  -1838.832139595884 -4298.356926948099 519.1266485575993  -2539.559277197805 -4752.766168824555 257.1525892182411  -3096.386609747277 4648.620000359533 -96.56262602280478  -4090.320018459979 3636.418359352157 -245.0095439595718  -4356.803081090297 3628.182396920139 21.92769750376183  -5110.820237257962 2393.82364399788 -153.1683494914525  -5180.850119759478 2272.205723937675 142.9010877295681  -4540.884379659386 2269.184332767416 -435.9476475572329  -4189.960557946173 3357.573157327892 307.5144713993822  -5407.076456856965 992.4207197993462 -278.1176761899271  -4786.622606311541 1868.085983912939 419.7483633579449  -4603.408276060528 637.2081767765648 -559.2828852183229  -5168.705094215828 -720.8052261119129 -399.3617845275645  -3561.310494943061 2816.236457100644 569.5230237568784  -795.5551711989671 -2302.696616982527 852.146081923621  -3468.575355846376 -3675.784320221895 423.5687170563174  -4136.934213561251 -976.5868829167804 -638.2101394731957  -4468.743751138308 -2291.829129569995 -452.4297872210449  -5531.101886413684 629.8357071500884 240.0312053966389  -1924.899988408531 3705.646362370848 -631.5144303545147  -3939.354365287076 1202.668872516381 660.4591078165768  1238.389689472459 3744.533218307128 670.1906619442427  -5329.152182437627 -1877.216842895219 -160.9173794194434  -3352.171998301112 390.1115742116846 -767.7605974802095  -2611.627846803588 2143.272748626413 761.5075331489867  -3220.842857394726 -2465.880549635043 -663.8791238654388  -3371.919199425057 -3670.906427814486 -445.4348729493871  -2841.714248121752 4133.715985724463 427.2547645528547  -1450.781017323024 -5363.674304475423 61.08854664185499  -2750.675971888838 360.8908702897293 830.100316394361  -4063.608984523863 -521.2906576384098 665.8935731185776  -1946.587923162141 -3681.943842416548 -633.7249530081251  -1952.686595866542 -4693.109341869831 -392.7909134460837  -1677.723349692276 -2331.981749489797 -814.5590166641919  2918.608318598825 4785.314258893181 -26.78285606663794  -3925.097687263672 -3942.278368595126 168.2836326746987  -4726.325063429922 -2662.553267583147 294.4344379777941  1030.998142381084 4820.214710234969 440.1160287255981  -372.2428989958565 4347.786362285598 587.3202255552036  -128.9773007824538 3276.65034714477 765.1698376858119  -1560.27044403625 1384.590019470014 880.7069682257018  -2601.381569550758 -3006.643282195564 672.5411596275346  1357.77501046909 3660.840663857538 -677.3208605610881  -3226.529543422914 -4437.84263492742 -207.17357337261  -426.4707511888046 2808.804920259042 -814.5376897055875  -945.1659832367549 1204.458060681136 -911.3538101067118  -640.5784756500783 5188.954258917734 322.0562112791544  -1216.957900884267 -852.5474980306847 914.1182168900042  -416.0546723712557 -4552.717870082966 -539.3838219155399  -2629.095494503475 -1369.854125334792 810.056814751635  -4052.07217106558 -2204.810074518882 558.9587778372646  -5044.047720757466 -1059.637585592326 420.1185266723435  -5518.268425089381 -1375.473877261621 133.2209531335066  -5731.539373867647 -178.8959140275661 -82.48058876627057  -2211.85141759033 2386.358797998393 -774.6253442307628  -3354.140577152385 2639.209234991672 -625.5256531191579  -489.5810495091333 -5228.401951107542 -310.4381086887678  -195.8825069352102 4105.21935664883 -638.2234345191509  2295.497890336451 4883.53278527062 247.7868517499327  4961.832324132235 -1442.480644030808 413.3930398932025  287.7756779601044 -1573.826504496497 -907.005920923397  909.8968756301207 -5418.030988909236 -146.1545423505459  -1753.441671747288 3549.187823783921 669.9623956750761  5502.646073444222 1397.597816689124 -143.7457506822362  3677.904798668972 4027.524356823753 244.1389224938148  4338.59663379861 3650.114011857533 -10.84989276811308  -4395.030948203809 -3301.344267134205 -239.9802443088816  -1907.209273524724 5223.283350808984 73.87263980107934  -3199.772807912766 4504.600063478089 173.6035202217271  -312.3244653713217 -3397.224768148218 -748.2804605077907  -1342.219067830828 -620.1797119718643 -914.8378068869798  -2829.220868923152 -995.2070163825373 -807.6941465776094  1329.817917129513 5397.155141871554 -48.48759212103436  155.8082923648753 -5518.483322311658 105.4532101147606  3179.200745737665 -3510.169170816337 516.0773205678952  5512.359910421966 1415.480552119948 127.5801847937654  2519.051682714334 -1488.682075717255 813.4147518447354  -4868.678335388176 -2960.408587474087 23.44147049840578  -1030.72323518905 -3665.957169520703 691.9474071494842  2805.612619334017 2689.22416646949 -689.161360385488  -4932.757193907794 442.8286216720584 483.407733992755  1292.563180799553 -4137.222345607312 -596.1947558236739  1410.651900224587 2668.489775028668 798.1197614317429  820.0385167745505 5373.067339911026 199.4151370202954  -3580.618552725221 3482.595637644569 -445.3150307554698  4814.243475127372 -2677.473926286945 -248.0684808434293  -88.15179529572853 1445.514657085278 914.2353190772188  4360.887259550904 -2606.102342863091 430.877498774864  -5588.914348516552 1323.841533897333 -21.59827030207586  -2975.362970955623 -4755.002902595903 9.144455099697421  -1817.072832992955 -5190.001122541009 -157.2695911265337  5164.115873165829 2453.795198974076 -6.610909372788668  -1285.445969930205 2737.727382033695 797.0388183103418  1599.591478435863 2486.195905418946 -805.5463019295406  -1941.828948266219 408.2839220501099 -888.9601802213166  -2104.731808210185 4860.253974035635 301.4632745590731  4896.256604089258 -2490.264758968879 261.0342726657005  -392.1294591595762 -5513.900055101921 -95.28784297643865  -3692.952310711886 1444.476752542765 -684.4336577263047  -2524.282339769318 1227.747994918067 -825.5005659302807  -1609.965186361016 4469.416937545797 497.1977617555916  -4047.623442490105 -3937.486599656169 -53.09514921540313  0.0009138758275948927 0.003715315306355669 -0.001838919466047638  -1836.554165422398 -2174.481383528265 26.23612622338709  2777.094388167784 848.0062928602956 -4.331775150690372  -1106.372608015092 2285.653161783436 208.6979355975034  2070.042618367178 -1620.269254140685 189.8671307177629  -1348.782830350221 237.1912640494828 -421.6334448406211  -2856.279301485889 431.591996779517 0.3473190767856574  545.7131802417373 2585.352308561567 -181.2298415680644  1929.27292181583 -1274.066370173304 -283.7634059305867  -1500.782167031148 -242.0946710913123 408.9712094984515  1439.035747630384 1923.728835468229 329.8605420461586  -531.3892565804654 -2195.373041262019 -358.2959977289079  475.2571036880844 -3170.384474130327 1.750546687129774  11
[...]
<PointData  Vectors="Velocity"> 
<DataArray  type="Float64"  Name="Velocity"  NumberOfComponents="3" format="ascii">-8.6220115121709456e-10 -3.7022385224702804e-10 -1.4363900581215266e-07  -4.3444338398248072e-10 -5.1261535851977226e-11 1.4282606079394856e-07  1.3704684628624456e-07 2.2687986305418193e-10 1.2444270474154620e-07  2.3495305071438470e-07 3.9745609270072386e-11 8.2580829681270246e-08  2.7757946176048506e-07 -3.7222787432185961e-11 3.5788649787048947e-08  2.8454846774782595e-07 -1.0680336947682031e-10 1.0766620499579309e-08  2.8339707888051229e-07 -4.9621519671506477e-10 2.0001248469829797e-10  2.8475558107930672e-07 -6.4870542056532614e-10 -1.0964630114541821e-08  2.7754131546003814e-07 -2.5812228574329807e-10 -3.6361527025892947e-08  2.3466956696574396e-07 -8.2327451343179513e-11 -8.2354517655134000e-08  1.3712799959793891e-07 4.8766917459536307e-10 -1.2542899651170697e-07  1.6310142930727994e-07 -1.0097688122958617e-07 9.7989060302498081e-08  1.6575542350227594e-07 7.9592082493662457e-08 -1.0573344983008069e-07  2.7352577766647524e-07 -6.0062415496176821e-08 3.8068724179229298e-09  2.4782761755325386e-07 -8.3368232024984471e-08 -4.9480060731113447e-08  2.7160798856960630e-07 6.7028784700988077e-08 -1.7586268245587514e-08  2.7174864006926471e-07 6.6241930183169951e-08 1.8499924930193976e-08  1.8033313783676034e-07 8.9593118878816858e-08 9.4725651846484495e-08  6.6646900757777998e-08 -9.6741185954632643e-08 -1.2487883916295028e-07  2.4801196594432457e-07 -7.7928058421277547e-08 5.2517650578658309e-08  1.7479078817094162e-07 -1.5563488216418476e-07 5.7407463117755676e-08  2.2889722515733784e-07 -1.3144932982134432e-07 2.4684128323294145e-08  1.5408905293686376e-07 -1.8533341480638874e-07 2.2567807309556448e-08  1.9822884124178595e-07 -1.5580811420308582e-07 6.8907837395484812e-09  1.2305422343768728e-07 -1.9673600561080045e-07 5.8479390704757196e-09  1.7167588802413295e-07 -1.7163091233027848e-07 -1.2241088985476126e-09  8.9561832796130308e-08 -2.0646711724139030e-07 -2.7865201394544808e-09  1.3922883642711535e-07 -1.9160048021223757e-07 -1.2629806083782953e-08  5.0536606676234701e-08 -2.1776657947292499e-07 -1.4833752781554466e-08  1.0157676944581440e-07 -2.0350138244635928e-07 -3.8352604729025653e-08  -4.0595368346458785e-09 -2.1886211607320910e-07 -3.8811639234535103e-08  2.1155531698491027e-07 -1.4759968415960437e-07 -1.0079571015485846e-08  2.4894972273445498e-07 7.7474003403373137e-08 -5.2550023511113843e-08  2.2614463835058302e-07 1.3331349019750278e-07 -2.5980496365788989e-08  2.4412996324358087e-07 1.1253374981991402e-07 -7.0292434651143081e-09  4.3102224918824227e-08 -1.8966144241147350e-07 -8.0195920155830981e-08  1.5583418084860267e-07 -1.6012486192519197e-07 -6.8618981033792893e-08  1.7743362266667915e-07 1.4875764632981838e-07 -6.1565912030028756e-08  1.4904803592287172e-07 1.8716232770202055e-07 -2.7891069104648290e-08  2.7452125644532847e-07 -5.8812626689538313e-08 -3.7489982726734975e-09  2.3961935050646429e-07 -1.1831086319555354e-07 -3.4095483635480224e-10  2.7285727935575722e-07 -6.6985466924224817e-08 1.7780822017895482e-08  6.6513935626558449e-08 9.6985486665495517e-08 1.2583504122622382e-07  2.4758702768011608e-07 7.6831343922520598e-08 5.4007412442012193e-08  2.2475502327165099e-07 1.3329785938982404e-07 2.7210142308184109e-08  6.3887670643627226e-08 -2.1607083247872794e-07 1.7971227332191180e-08  -4.5236010049081793e-08 -2.1982559323333633e-07 -1.3387270377299786e-08  8.1033715560442216e-08 -1.7426576253262307e-07 8.4828807181888665e-08  2.4322763172675890e-07 1.1519144517085904e-07 7.1920105899031895e-09  1.8365941599042404e-07 1.6680712541814938e-07 9.3970345298920317e-09  1.4746200608842012e-07 1.8637934275401113e-07 3.2255942855699963e-08  1.0364229883481737e-07 2.0481088682810708e-07 1.1315212782326935e-08  5.0960302926215881e-08 2.1644034265319575e-07 3.0697881591563899e-08  1.2370685006364211e-08 2.1941849256585888e-07 9.9170848738422190e-09  -5.1585970634211770e-08 2.1813957535930668e-07 2.6751345456637966e-08  -7.6005131217057523e-08 2.1082801346089782e-07 6.5056998958438781e-09  -1.4168816253673987e-07 1.9304703623887752e-07 1.5195334149385995e-08  -1.5209139667071859e-08 2.1676198730480610e-07 -2.9655930623899048e-10  -1.0735726657140456e-07 -2.0456004760540440e-07 -3.2866482940857747e-08  -1.3023639885544334e-07 -1.9677804754475947e-07 -9.4598522656649728e-09  -1.5424848334111544e-07 1.8416625959366212e-07 2.4940344108605370e-09  -2.0924198707595929e-07 1.5087377117742124e-07 8.1937350149746644e-09  -2.1374631294582145e-07 1.4336454563964363e-07 -6.2523475108671534e-10  -2.5635800755553230e-07 9.5808043190146539e-08 4.3537616593413761e-09  -2.5877706812748370e-07 9.0827944289804018e-08 -4.6884045491125835e-09  -2.5129707277399891e-07 1.0245093874899489e-07 2.1681527979088626e-08  -2.1896882310711023e-07 1.4221059004916804e-07 -1.1358771759151634e-08  -2.7843419394840289e-07 4.2875747053728115e-08 9.5431547834048969e-09  -2.6278023676883305e-07 8.3494166215399327e-08 -2.0241686984151719e-08  -2.7356988104417443e-07 3.2559053899697903e-08 3.6329758050601865e-08  -2.7890529937551072e-07 -3.2527514339511004e-08 1.8139161081167527e-08  -2.1451724352045301e-07 1.3860024123714441e-07 -3.9226951402937059e-08  -5.9235418709533402e-08 -1.4256232025127084e-07 -1.1008832411751949e-07  -1.9169436651800652e-07 -1.6565471894489209e-07 -2.1555301169291840e-08  -2.5940368481184871e-07 -5.0567403606943647e-08 5.0812834725587639e-08  -2.4900530133568745e-07 -1.0499939992511206e-07 2.3337212671126423e-08  -2.8104142606197202e-07 2.7668691540477918e-08 -7.7247692388303368e-09  -1.2076366033810534e-07 1.9034634354893818e-07 5.0150956508842737e-08  -2.5152834526501084e-07 6.3809186121361437e-08 -5.4643339800144519e-08  7.9986990029768381e-08 1.9806279833170996e-07 -5.8264530242975201e-08  -2.6424848783835294e-07 -7.5998566879257977e-08 4.1945941963946715e-09  -2.3136960087383867e-07 2.2670770377486428e-08 8.1616335838978675e-08  -1.7967831127543692e-07 1.2368818274194741e-07 -8.0760196422529508e-08  -2.0547960315826197e-07 -1.3080965129278816e-07 5.5923489901019913e-08  -1.8827157008588187e-07 -1.6670904818668990e-07 2.3690625173916964e-08  -1.5706841075425869e-07 1.8657047186834996e-07 -2.1667207131282739e-08  -7.1688037198377037e-08 -2.1144500807439641e-07 -1.6025368831651397e-09  -2.0013903057269297e-07 2.1762609827582095e-08 -1.0131153226685071e-07  -2.6022359962869100e-07 -2.7103034063767574e-08 -5.6354958230966142e-08  -1.2199109167404630e-07 -1.8998212658309329e-07 5.1390326820524128e-08  -1.0600590568456688e-07 -2.0657632414375133e-07 1.8274797427693813e-08  -1.2099929161121853e-07 -1.4026603593792423e-07 9.5985688862867583e-08  1.4432243572665459e-07 1.8625355571153705e-07 7.6314297573799682e-10  -1.9746845046308164e-07 -1.5976191694048687e-07 -5.4177045969165116e-09  -2.4522651448278235e-07 -1.1245298397567707e-07 -1.0616093525767666e-08  5.6863481265878019e-08 2.1704817224179804e-07 -2.3445862931227694e-08  -2.3865878865777764e-08 2.1608591148540614e-07 -4.3941325008022319e-08  -9.2850646022140986e-09 1.8716737820740363e-07 -8.1516210597593703e-08  -1.1839439048989408e-07 8.8471336152211767e-08 -1.1713782922054386e-07  -1.6721022972431578e-07 -1.6092821047923125e-07 -5.8564422343198920e-08  8.7720074058219338e-08 1.9562576658384595e-07 6.0346317740120993e-08  -1.6325906213684408e-07 -1.8200070028994950e-07 6.8879369834972182e-09  -3.0341925538141234e-08 1.6792771484990882e-07 9.7118549131374972e-08  -7.3652779514249674e-08 7.8285367458206851e-08 1.2872668888870815e-07  -3.4493695286085288e-08 2.1970776622504630e-07 -1.3732095273517615e-08  -9.4593207727801931e-08 -5.7291142676318147e-08 -1.3122331230455790e-07  -2.4575105968639112e-08 -2.1990150991803233e-07 3.5720977738259652e-08  -1.8711679933348058e-07 -8.1547220088986793e-08 -9.3577308650263233e-08  -2.4160588351538837e-07 -1.0897040517543835e-07 -3.7816999082216800e-08  -2.7519261263474581e-07 -4.7531532761671814e-08 -1.9168289135248285e-08  -2.7163363881718813e-07 -5.5455334356371758e-08 -3.4283393012530198e-09  -2.8116295811813017e-07 -6.6681452263111004e-09 1.8920819511103739e-09  -1.5470130503111258e-07 1.3814443386521629e-07 8.3845366795363922e-08  -2.0971301883886740e-07 1.3528667786267593e-07 4.8603562523017476e-08  -2.7001652407475374e-08 -2.2123785332234618e-07 1.2602528592691106e-08  -1.2642470673325792e-08 2.1133640753646104e-07 5.1835019523280640e-08  1.1709984398299784e-07 1.9903778035415036e-07 -9.1768328416211457e-09  2.7297041529734627e-07 -6.3883706978017259e-08 -1.9921995032422786e-08  2.1066498052124526e-08 -1.0186538164063092e-07 1.2865985549135496e-07  4.5054749187422892e-08 -2.1608456339880047e-07 4.4449699728493215e-09  -1.1268935515058569e-07 1.8905772443136974e-07 -5.8829626936760178e-08  2.7459082141922491e-07 5.6051415385989354e-08 3.8740238886734264e-09  1.8759027913701584e-07 1.6392231894323005e-07 -8.0932683233298909e-09  2.1333188677333505e-07 1.4226036183511301e-07 3.1965774574203860e-10  -2.2423372125018671e-07 -1.3646408556118663e-07 8.5794175445882405e-09  -9.4576526816190957e-08 2.0609545627148550e-07 -2.3197933298693907e-09  -1.6048120909310823e-07 1.8106485050298095e-07 -5.5694648921092125e-09  -2.1261170415959056e-08 -1.9307322222730972e-07 7.8508082724060330e-08  -1.0447456136650435e-07 -4.0076756602571672e-08 1.3013069397530281e-07  -2.0197565706852937e-07 -5.8389498600418902e-08 9.3643187572465633e-08  6.4595499902448768e-08 2.1212686239136901e-07 1.1066861608270825e-09  6.4601459478571181e-09 -2.1845837784734791e-07 -3.1564605265702492e-09  1.8383505711273357e-07 -1.6606176968913667e-07 -3.1684786885291990e-08  2.7419323169720845e-07 5.6900679835306591e-08 -3.4824482722954593e-09  1.7987304020486161e-07 -8.8578789593281997e-08 -9.4275066756812401e-08  -2.4002505565014328e-07 -1.1741266835539656e-07 -6.0710806345428693e-10  -6.7749239646799454e-08 -1.9842929680074077e-07 -6.3979246415853749e-08  1.8276512093435931e-07 1.4454837601604251e-07 6.2608007939710620e-08  -2.7922837229375888e-07 2.1453135667978554e-08 -2.6428581406493844e-08  7.8446154104787190e-08 -2.0775676148195828e-07 4.4400439342737057e-08  1.0005320670336397e-07 1.5783333625359090e-07 -9.1569110436634003e-08  4.0286684763376923e-08 2.1630707103172226e-07 -7.0238129125004316e-09  -2.0058665454422146e-07 1.5846195238158656e-07 2.3252311135366246e-08  2.4781610785665886e-07 -1.0985761091033609e-07 8.7573949696156713e-09  -7.2575806018439823e-09 9.3931855114396789e-08 -1.3239206518649459e-07  2.4185346551732281e-07 -1.1798736974553356e-07 -2.1867671467118178e-08  -2.7425326338379618e-07 5.3644503333186827e-08 4.1968157808476281e-10  -1.4602643409159973e-07 -1.8869664846013972e-07 -7.5730818811695750e-10  -9.0751020823230259e-08 -2.0779218207952187e-07 4.6562669764230649e-09  2.5528060072319059e-07 9.6391030003255117e-08 -5.3574216069281688e-11  -9.1301757185469945e-08 1.6134135162010146e-07 -9.0839509043534255e-08  1.1454629684643853e-07 1.4661441181482587e-07 9.2780450279362920e-08  -1.4791100208685101e-07 2.6758472543047002e-08 1.2066792947841772e-07  -1.1063172766759058e-07 2.0433734845126104e-07 -1.2084391207226814e-08  2.5269654872134565e-07 -1.0318684632052581e-07 -9.2852786965546269e-09  -2.1112616417092981e-08 -2.1879860902389653e-07 2.8968987204103712e-09  -2.4044743265080910e-07 7.8284271065096512e-08 6.1190004142372496e-08  -1.8209719473929214e-07 7.4061034075213503e-08 9.8159818112818874e-08  -9.3040452833620620e-08 2.0843543502617415e-07 -2.9782691338879311e-08  -1.9980959021458699e-07 -1.5627652158122419e-07 1.7373648487032395e-09  4.0276372125706691e-11 1.6640163050283781e-10 -8.2677404685615766e-11  -1.3619309990702328e-07 -1.3593177811612643e-07 -3.5278732964325933e-09  2.0580765160041318e-07 5.3123672300747473e-08 4.9621095142819007e-10  -8.4141199536247287e-08 1.4510953363230735e-07 -2.6456706853240344e-08  1.5613108109678284e-07 -1.0288256506487050e-07 -2.4069777396723566e-08  -1.0934105020540068e-07 1.6103941471178254e-08 6.1525233990023413e-08  -2.1208854968634526e-07 2.6635543041961785e-08 -1.1645444107120321e-10  4.1418062957065552e-08 1.6306299120684042e-07 2.2519693396780663e-08  1.4887618262276323e-07 -8.2228043256364114e-08 3.7543320339741537e-08  -1.1985212024919677e-07 -1.6204836801998567e-08 -5.8435792323844473e-08  1.1014163384191873e-07 1.2273982343596531e-07 -4.2608883301036165e-08  -4.0485303920503939e-08 -1.4161791012483734e-07 4.7170218208270957e-08  3.3800585789786718e-08 -1.9040978122383467e-07 -3.0056606466037605e-10  9.1351264416505595e-08 5.6547710644558587e-08 6.7974048670599014e-08  -3.3759387152509122e-08 -1.5676059603356167e-07 -4.5510617101181894e-08  8.1332664835227720e-08 -1.9933156965449123e-08 -7.4646309377660202e-08  -1.4166299249366434e-07 1.4678975867016813e-07 2.0301520023558575e-08  -2.0823260148694491e-07 -6.9580388181135358e-08 3.0516562419142078e-08  2.1484103782609179e-07 9.0373635210285014e-09 -4.0689990311085230e-08  -3.1450088468876758e-08 9.9589299981467166e-08 -7.6108114196224141e-08  4.1375020038592176e-08 1.9691171474831521e-07 -1.4143260901735903e-08  1.7730055396734937e-07 1.1982121860397123e-07 3.2063847524823397e-08  1.6736565675206148e-07 1.5885541822888941e-07 -2.8125330019252365e-09  -2.0507589299216617e-07 7.7860416370679879e-08 -3.6604164472114467e-08  2.4086105961763046e-07 -6.0955580257620272e-08 5.1934605573862350e-09  -5.2875251427705454e-08 1.4184246264131341e-07 6.1455143674718473e-08  -2.3329319085236459e-07 -6.7748801340149651e-08 -2.1373214069665089e-08  2.3467954360223650e-07 1.1613323108420750e-08 3.4233820919331348e-08  1.6568658683731912e-07 -1.5727946136187386e-07 7.7029497803998049e-09  -2.2248450097288154e-07 6.1710417482267015e-08 3.4986227173541615e-08  5.6811519088304708e-08 -7.3104669981288790e-08 8.3358489143615639e-08  -7.7029457357743503e-08 -1.9793255439742871e-07 1.5501938342363384e-08  -7.3042211440336666e-08 -2.0365347549230680e-07 -1.4075528724350647e-08  8.9680065272733601e-08 -1.8698068151102359e-07 -3.0092636599791627e-08  -1.8796051726248563e-07 1.5170454308025407e-07 -1.0941626111562191e-08  7.6802445822402686e-08 -1.8507894304044261e-07 3.2647552316859804e-08  -5.2952087905676983e-08 2.0648219071108237e-07 6.2147491707400757e-09  -1.4333041748710827e-07 -8.9435596668230272e-08 6.8960646994747861e-08  2.2249109805824174e-07 1.0203181402004516e-07 -2.3138082025463509e-08  3.2326549710018202e-08 1.1197472514246598e-07 -1.0336293360088762e-08  9.8588124052557053e-08 6.1011161666850131e-08 2.3678941710414726e-08  </DataArray> 
</PointData> 
</Piece>
</UnstructuredGrid>
</VTKFile>