<?xml version="1.0"?>
<VTKFile type="UnstructuredGrid"  version="0.1"  >
<UnstructuredGrid>
<Piece  NumberOfPoints="201" NumberOfCells="657">
<Points>
<DataArray  type="Float64"  NumberOfComponents="3"  format="ascii">0.1079030131261424 -0.08966814314649076 4611.94484890841  -0.01065036156163245 0.01605027670062904 -4611.945381799717  1479.012738539995 0.01280607726104076 -4386.18533612215  2813.144929307217 -0.09141948929768411 -3731.264175810745  3871.986390168743 -0.0141036632204985 -2710.735443426226  4551.964639167049 -0.01828400224129546 -1425.162561015714  4786.386872539671 0.0304963239382196 0.1904660266602271  4552.038158702999 -0.05908708658809704 1425.360527141979  3872.205067620666 0.005994294871996853 2710.893878340909  2813.395631150931 0.02525126502330812 3731.111377501289  1478.973639105488 0.04223648331148282 4386.124228186345  1874.495143582807 -235.2431344726619 -4011.106831033126  1862.113740720988 182.7807531464201 4110.296254470642  4557.208724914477 -209.5491137204349 -683.8661727458692  3281.642502247622 -228.4949586888003 3076.234774848241  4145.089880289605 211.9234566320728 1939.956557705556  4127.835240062691 211.9223991537867 -1973.526417416956  2092.882120755097 210.5743930138515 -3958.068170345266  721.1925385737377 -210.606083109398 4387.401125165173  3259.901734502856 -210.582903738106 -3141.05905000856  2271.146654565919 -411.7218024206954 -3248.938813210212  3374.535810075572 -403.5790074949423 -2237.572658717533  2316.902902469119 -573.9209014656253 -2151.740361774523  3263.692706971904 -539.4105045678371 -1059.299565163204  2050.789735516807 -680.0566724132356 -901.0229323375283  2917.983580885676 -612.3334267021263 227.8479904715657  1534.58033516769 -725.0404070739958 411.3983898939592  2223.696519605298 -632.7041378722402 1559.371300378092  801.5934222777382 -706.3842432228514 1659.400939127155  1422.200272883806 -579.5257176975064 2738.161271115952  -55.18249523476727 -621.3990678705903 2744.638377716753  3405.944992462281 -499.629125051354 1314.571885502829  3260.117820457097 210.6258412078204 3141.128542896239  3306.268269920554 406.2894854515973 2314.405435731871  4003.418460981864 389.5747051503379 1047.445184468227  531.3241645967703 -464.3234871969433 3666.493632279856  1945.743613768401 -407.7041683753056 3455.947371270934  2270.703068980433 388.3979521663583 3349.00212194209  2191.088792942603 565.1896635920655 2348.794781357011  4566.009588070142 -204.4465659660786 683.8106408708388  4030.014636061417 -420.7586784588611 79.30692131660949  4154.424485912605 -212.1327920570854 -1920.685231943633  721.2819269226758 210.5387211443218 -4387.479545949431  3227.338078295068 205.2763009098994 -3184.076893392896  3280.644507362608 404.1517618811044 -2360.663320200218  995.2339760680798 -685.9739241350397 -1868.447093596066  -696.5710725445635 -714.5075740382915 1571.041769656031  969.1328673818184 -421.9627722206606 -3763.671932123052  3976.248142257788 394.1914133239872 -1082.353634811653  2977.371873385855 566.3091162931196 -1304.352583182312  2113.708822757372 551.4551533313693 -2526.499956351459  1671.028477852106 682.8343760315222 -1407.81866962295  737.8455938435268 642.3628178942865 -2460.4193020662  216.1935490414265 737.2983187014603 -1278.312202138187  -756.6486876529833 660.2102089580181 -2271.717684351921  -1249.411371961432 724.6231200996367 -963.9716617545378  -2199.418197449008 621.8406677687769 -1740.619428646572  -240.3740227433877 765.6477309467037 85.48459769910349  -1532.860795877542 -598.0121687575247 2530.219530719351  -2118.722623558796 -659.6888563085221 1253.33418509823  -2583.063732518529 645.6617690248756 -470.4667346328318  -3407.526445849301 507.7756443917573 -1192.58627514763  -3629.633444670817 506.7482910279558 106.6634879265024  -4252.931840906632 335.8452366346108 -744.6949409262356  -4310.773661991309 318.8605365576187 694.6815583514629  -3777.856458736074 318.4630760853366 -2120.335356090983  -3489.385252757391 469.4718260647043 1496.475474910109  -4496.155109011209 139.5701265109019 -1351.623663131906  -3981.317241803197 262.417439869984 2041.009978134475  -3826.77718492441 89.60570522980883 -2719.445500832596  -4297.32330578174 -101.4209061174279 -1941.007903106193  -2963.912032952092 394.3433630163187 2772.229747361092  -661.6465661809699 -322.7679882060388 4151.698205927535  -2889.511727232489 -513.0114703094689 2062.583901305949  -3439.072338647291 -137.3108976153365 -3104.475376753488  -3717.959797520738 -321.5388205178889 -2200.583652082704  -4598.880367495298 88.66657165157912 1166.302262593631  -1603.411492260687 516.9535924549532 -3077.160395579574  -3275.038626875564 168.9589935906288 3212.912401938692  1031.464479129854 522.3537024531436 3266.075623774554  -4433.194975222745 -263.6341767159638 -782.1608988683417  -2786.109851076266 54.90775516281154 -3736.506893741213  -2171.919532312089 300.5762647063823 3708.047973329339  -2679.586527656282 -345.66557767353 -3231.821721723331  -2809.081565861332 -512.333288797005 -2169.152474486677  -2368.473630977038 575.6553218763154 2081.412214750968  -1211.623490696694 -741.3240738090664 297.8394496576036  -2285.895963200623 50.77972408336304 4041.14490403179  -3377.840236241709 -73.34130847866646 3238.992202242277  -1621.418640926747 -513.6413415892247 -3088.051020874645  -1628.877012833219 -651.5210106076087 -1914.660740804366  -1395.717652905457 -326.8702887044774 -3967.851201892062  2435.322327634811 663.8852940784044 -130.5313794895765  -3271.287959923832 -549.5804685884034 819.23717945325  -3933.578236825348 -373.3080348424593 1431.963780662428  860.1683590781438 668.5479514453864 2146.079317603793  -310.3746410800913 604.3740318976365 2863.650294715472  -107.3680749037214 457.9840913334259 3728.831523418089  -1297.027701927647 194.4135518562398 4289.242027998762  -2165.032377672238 -420.6431861169231 3275.472912809808  1130.778153805802 510.6738782081356 -3300.832989206117  -2690.728330835131 -617.0135193273637 -1009.237267954453  -354.9476833179838 393.1022089760356 -3968.970327420845  -785.9193135548743 169.0874053658838 -4439.159118286952  -534.7454735072305 717.9860991124204 1570.921788557656  -1011.548580627193 -119.819116726287 4452.346157007372  -346.9597498736093 -632.3803283041356 -2629.931292374999  -2185.430257499572 -192.3778123944686 3943.844247407666  -3370.847493104228 -309.2981763153854 2719.423412897715  -4193.96301013647 -149.0686987626412 2042.074497432727  -4589.282840287032 -193.3632869789007 647.2721105321315  -4765.602668879182 -25.16414147285123 -400.6239486923009  -1839.834571539157 334.4382004028538 -3772.831519917872  -2791.012802437839 369.7739127611117 -3045.112567587895  -408.7609505545635 -723.3112988151664 -1514.171022836836  -163.2102271719806 571.6918780116246 -3111.157928832961  1915.538692418769 677.2419664528419 1207.938931762254  4126.48844659551 -202.7428752704401 2009.932084272121  239.3085789849745 -220.8577215904889 -4418.58817475144  759.9366057438821 -748.5914668121744 -712.907380589712  -1460.129699804444 495.4858475512771 3264.540038506013  4576.576942038308 196.5250315996624 -698.4431765116396  3065.565246757321 561.2431576243411 1188.802421893786  3614.739459669922 509.7375018428802 -52.71768648441336  -3660.193071789384 -461.6485020533635 -1167.819418086319  -1592.456636649113 722.756571818427 360.2631885586563  -2668.64213745089 626.0690966963955 845.8696586963769  -260.220276681412 -474.5480186622605 -3646.863407398177  -1115.798397360704 -87.14585787146522 -4455.670866045936  -2351.63150103714 -139.8533752072726 -3931.998743891636  1110.692397335842 745.8513282871197 -236.4681287166888  130.1474309413012 -761.9432433233977 514.5101442976426  2647.769777529382 -490.2748570107279 2512.993891680572  4584.715323661534 198.9421515469763 619.9957570576551  2094.210153862048 -209.0044556148545 3960.224799878903  -4053.364904663038 -414.6040860322444 114.0191620415027  -858.4150542303009 -511.5859402763012 3372.195975229544  2334.287117222794 376.71591010802 -3355.745814449923  -4100.723809325026 62.31006079844078 2349.861505088502  1077.202985097069 -575.9339102452814 -2905.950344915793  1173.434420531501 373.6605279672511 3888.208005225104  684.8756378595505 742.5612322758551 972.8364127023247  -2982.283620046616 486.4308606752847 -2168.07965491597  4007.02735812513 -375.3202030142427 -1206.335658350349  -73.27110449173095 202.8489209571077 4453.825082610451  3629.185214861737 -365.2296022922495 2096.190546139404  -4648.187971830293 186.1210238134604 -104.8308125634697  -2482.553468995244 -660.0289893522233 44.58955355114119  -1517.121812329542 -718.2631898147133 -766.8169792010854  4297.707181182832 344.1604191697162 -32.05982459807537  -1069.526631403474 383.3935917609291 3883.055841478363  1330.705689695629 348.3567094884878 -3924.046647068768  -1613.876228359187 57.36891344929701 -4328.99931746008  -1756.289436570201 674.0350121238931 1469.772058449033  4074.642325986626 -349.266347792781 1269.408166348855  -327.5595042149075 -761.3934322426749 -464.8734402891784  -3070.512908191169 202.949119819168 -3330.516961982159  -2098.353609922182 172.494556758781 -4019.281428197102  -1342.431775205193 621.3218528145925 2423.626234498311  -3373.172372796831 -549.2235063444999 -258.5038473327801  -0.08201030740700958 0.003396613350498738 0.05491755294181763  -1533.128355107765 -300.578730584872 128.298740511442  2316.925858944271 117.5133569477492 -21.1482101140955  -923.6927386481884 315.7993612627083 1020.302551805211  1727.494379401296 -224.2598787290795 927.926132742072  -1125.104829167277 32.88783199733995 -2060.807107390604  -2382.848561558205 59.82987021592049 1.722456416301303  455.5908991695767 356.9917872997364 -886.1327250267412  1609.717854960956 -176.4639435374575 -1386.784335070568  -1251.911317588678 -33.56768619832826 1998.790367088998  1200.743495657168 266.3146108942138 1612.071046750668  -443.5060470796167 -303.7285215568211 -1751.42125351532  396.969044973336 -437.3220665912775 8.614192912051832  955.6076015553499 116
[...]
<PointData  Vectors="Self-Gravity"> 
<DataArray  type="Float64"  Name="Self-Gravity"  NumberOfComponents="3" format="ascii">-4.2255041844479690e-06 -6.0820382219154978e-06 -4.0665659494089104e-05  -3.5716014177134112e-06 -3.4536696906160119e-06 4.3417684098554600e-05  -1.1363319844801251e-05 3.0967847473536955e-06 4.1541878467422734e-05  -2.4808819497445273e-05 1.0054830911013917e-05 3.8266685424443991e-05  -2.7531272993249027e-05 -3.6107878111450448e-06 1.9996114326479388e-05  -4.1750320408571838e-05 1.6834051546125541e-05 1.4435079693094094e-05  -4.6234478280592951e-05 -5.4240297941245566e-06 2.3887041235369527e-06  -4.1121512641135252e-05 -1.7871392731934364e-05 -1.1387282216429281e-05  -3.3170681972959715e-05 3.8331121215591688e-06 -2.4937962482186116e-05  -2.3265024078775610e-05 -1.2768493826302359e-07 -3.4163167718543445e-05  -1.2671696341440697e-05 2.1719384977156592e-05 -3.9099354811783971e-05  -1.4913823387238190e-05 7.6505483597631490e-05 3.6720028516825607e-05  -1.7063580734938507e-05 -7.1029188732207936e-05 -4.2267883859942010e-05  -3.4604895696260579e-05 6.2656924435160790e-05 3.9891812414833813e-06  -2.6719340253908158e-05 7.7929851091197889e-05 -3.2502791107911129e-05  -3.2115740148630610e-05 -6.7477495175734270e-05 -1.9209177213320588e-05  -3.7006153501755168e-05 -7.9668417962830426e-05 2.2773485036480554e-05  -1.8010008629662718e-05 -6.8837050431953608e-05 4.0824594455606750e-05  -6.1081994873048901e-06 6.7283647662686109e-05 -3.9462240428866875e-05  -2.8632185484777304e-05 8.1404475560230364e-05 3.1887113212101228e-05  -1.6942462081606788e-05 1.2799496702546885e-04 2.8030709959870266e-05  -2.8632909941484185e-05 1.4837369851785612e-04 2.0040351190580250e-05  -1.7573834689735870e-05 1.8514736715051429e-04 1.5034342512120883e-05  -2.3273771392773519e-05 1.5495231848013232e-04 6.0575555807686253e-06  -1.6813770390541867e-05 2.3594590285016474e-04 8.2043541409212134e-06  -2.2595244183121961e-05 2.0887960914282101e-04 -3.7466866248219212e-06  -1.4811776911006139e-05 2.4808870011628931e-04 -4.5115307178564734e-06  -1.5400748197445387e-05 1.9376062837536245e-04 -1.3258065468766299e-05  -6.7320405235542016e-06 2.3563071100780888e-04 -1.4779000954727203e-05  -8.8068377913455298e-06 1.5032861330364179e-04 -1.6609120729136137e-05  1.0527060101065166e-06 2.2423161732401976e-04 -2.5156647586247851e-05  -2.6951691738605842e-05 1.8120604644676183e-04 -1.2160401771798501e-05  -3.1234102747650767e-05 -8.6013516935775399e-05 -3.1835271456438893e-05  -2.5973613834752318e-05 -1.3447342141503730e-04 -1.9400700927114199e-05  -3.4699824184785511e-05 -1.2416052186631208e-04 -1.2747547524266804e-05  -3.1050097639185728e-06 1.3432242970864495e-04 -3.1422656149831746e-05  -1.6912251436562506e-05 1.4061825237408871e-04 -3.5372387941691154e-05  -2.0987209973154994e-05 -1.3734655444757997e-04 -3.0031238077498523e-05  -2.1855759309776798e-05 -2.0002800404680075e-04 -1.9867345771863451e-05  -4.5157577341225176e-05 5.9239024981529588e-05 -7.3831262582142915e-06  -3.2160341488690614e-05 1.4008589572982671e-04 -1.3119180365920247e-06  -3.9042842503760106e-05 6.8224612715567305e-05 2.1650526669829128e-05  -4.8832941636086021e-06 -8.3117426375027147e-05 4.2520521759802931e-05  -2.8272502499163010e-05 -6.9090601946638724e-05 3.0527943959291898e-05  -2.3042090159417459e-05 -1.1190794792790560e-04 1.7270988022678875e-05  -8.8632557672835270e-06 2.0085422920626458e-04 1.6556343787747607e-05  3.5588344615108084e-06 2.4005788517443764e-04 -1.4562449988906607e-05  -8.4549072896718409e-06 1.4505172771481765e-04 3.6145447261862787e-05  -3.2644202703125120e-05 -1.2058894301948941e-04 1.0939003607395319e-05  -2.6932949902663847e-05 -1.8188718984437645e-04 1.1333903309401732e-05  -1.6875504020319560e-05 -1.9201784560279230e-04 2.2596091930560812e-05  -1.8903197834147330e-05 -2.3808586341843966e-04 1.4245797586880081e-05  -5.4665823018609763e-06 -2.1182817360530619e-04 2.3665638456952357e-05  -2.0613388049551984e-06 -2.3004633763480599e-04 1.2367855970260165e-05  6.4668573045042201e-06 -2.2697952651689902e-04 1.9006261131227980e-05  8.1725402121717764e-06 -1.9604754931442901e-04 5.7862999827654460e-06  1.7237941326169378e-05 -2.1340017016690613e-04 1.6793158518815055e-05  1.8308744591764540e-06 -2.5503060344044134e-04 -1.3235804901400396e-06  1.0946120593962176e-05 1.8207450838557981e-04 -1.9249567473736667e-05  1.1259728463162510e-05 1.7079024928061558e-04 -9.1837882315757828e-06  2.2158589483177813e-05 -2.1954716548285390e-04 4.3729852482465045e-06  2.8591149867078506e-05 -1.6209110110546363e-04 1.0859171016069096e-05  2.2084598154521828e-05 -1.2141523475107912e-04 -2.4816233795258180e-06  3.6862307731242622e-05 -1.2166428898382466e-04 5.7704259229461194e-06  3.5940672142787159e-05 -1.0330303556873835e-04 -7.4990907130299295e-06  3.1509755212318157e-05 -9.0183775107609621e-05 1.9515505332359323e-05  2.7737454354751392e-05 -1.2003328471504641e-04 -1.2317657245900056e-05  3.7338952411419737e-05 -3.9469309960516209e-05 1.2811311731486094e-05  3.0687886116367775e-05 -7.3078468993328542e-05 -1.7956104641416861e-05  3.2582327035856784e-05 -1.4680252736514880e-05 2.1791082823640357e-05  4.0432022620816626e-05 3.0192389031313584e-05 1.7868710172521646e-05  2.9233872603016055e-05 -1.5969605547370218e-04 -2.8638160410066739e-05  7.8102903073710141e-06 1.0649911486012733e-04 -3.6942844619090772e-05  2.1477987236797948e-05 1.6641483172117469e-04 -1.8021064482533451e-05  3.1817428588799891e-05 5.0745819570652280e-05 2.9425502501309196e-05  3.0792769648170180e-05 9.8062877959537249e-05 2.1783435679770308e-05  4.1284413497543565e-05 -1.4023134111989950e-05 -1.0452079414658568e-05  1.3450764140358196e-05 -1.6373448158633655e-04 2.5994771692579713e-05  2.4729479023877612e-05 -5.7935463796470833e-05 -2.3298520843893994e-05  -1.0282142788005548e-05 -1.6984664973364281e-04 -3.1831492890692468e-05  4.0817921634609517e-05 8.5929828722995050e-05 6.5767953873077751e-06  2.5491774476816697e-05 -7.2149374951050409e-06 3.5200803672279654e-05  1.9668251739980497e-05 -8.5520996571181407e-05 -3.4337243964639350e-05  1.8157474774464612e-05 9.5850225562902678e-05 2.8133391390467927e-05  2.3645145639436578e-05 1.7182155754141045e-04 2.5086358791863394e-05  2.2617402761715208e-05 -1.8608999760613514e-04 -1.7700504550594498e-05  1.0299022090027631e-05 2.4439408532739244e-04 -3.3219462151853477e-06  2.2770194925274385e-05 -1.9871008886806469e-05 -4.1161004181221661e-05  2.8672463115387645e-05 1.4950883339405680e-05 -2.8227209308861363e-05  1.2909116263436749e-05 1.8017575804062815e-04 2.8955420515358693e-05  1.0270305603722605e-05 1.5633149827033973e-04 1.1688536800062697e-05  1.0761893093147671e-05 1.0374845516227050e-04 4.0109519455141185e-05  -2.0831227842785865e-05 -2.0807926924773301e-04 -1.1948612058365403e-06  2.8787863570712583e-05 1.8493724232741072e-04 -1.0103666960869852e-05  2.9673774013584558e-05 9.3916536641633109e-05 -1.2812882609512142e-05  -7.7722957290127768e-06 -1.8116022240504057e-04 -1.7713197731498673e-05  1.7829445147231303e-06 -2.0729450098509882e-04 -2.8202018966713507e-05  5.0700685207934904e-07 -1.2704359533378658e-04 -3.2949039232562083e-05  9.6869764719522383e-06 -5.6541261004774752e-05 -3.4312708899858810e-05  1.9080159105619135e-05 1.3207748336669192e-04 -3.1857626051541307e-05  -1.0305148983453790e-05 -1.6770256519965540e-04 3.2550992551395069e-05  2.2975107669473905e-05 1.8366794897820880e-04 1.1492784904579802e-05  3.1068319696218948e-06 -9.8646785742420053e-05 2.5446333794906070e-05  6.8081535321986842e-06 -7.7455043638223998e-05 4.1202304043951477e-05  4.3234150111864407e-06 -2.2026304363688005e-04 -1.2706896459139973e-05  8.2790334769719523e-06 1.5477153220969350e-05 -4.3711844925754527e-05  3.3695780615462607e-06 2.1642692022372549e-04 2.4668791849921742e-05  2.2745581214726548e-05 6.1012755718340470e-05 -4.2010117533349602e-05  2.9998334496398899e-05 8.9525635378179169e-05 -2.8935417153216606e-05  2.7738844914963749e-05 3.9276664164836600e-05 -1.4618805107972432e-05  3.5260666848495590e-05 6.3496476375048515e-05 -6.6845926528618877e-06  4.1483910153512563e-05 1.8067493822320087e-05 5.1481969368374361e-06  1.5328980513628708e-05 -1.0468314526077277e-04 3.5469119062273226e-05  2.3710820756346206e-05 -1.3945580253957500e-04 2.7243381100747521e-05  1.3886063073982663e-06 2.4220254736715335e-04 1.5255193802727305e-05  3.3321433102871594e-06 -1.7635705802419022e-04 2.8446745199817298e-05  -1.5055726548123023e-05 -2.0914732492847626e-04 -9.2756560649481736e-06  -4.3080109933695699e-05 7.0688012190155757e-05 -1.9422231008995636e-05  -5.8511263734354599e-07 7.5316071605698417e-05 4.2046528733551066e-05  -5.6586002688861939e-06 2.7017986114311277e-04 7.7166142301621603e-06  1.5677428841714441e-05 -1.6426002183520137e-04 -3.2801859263329441e-05  -4.4626180890080878e-05 -6.4395772212124644e-05 8.0954053778787780e-06  -2.7581738236473714e-05 -1.8497513591706079e-04 -1.1092777779587641e-05  -2.6652940286474349e-05 -1.5576746004539101e-04 -3.3526696927460605e-06  3.5622593372158367e-05 1.6115272154667735e-04 1.1579604631476367e-05  1.4713822508728411e-05 -2.2428939252726974e-04 -2.7552251700707589e-06  2.5196773646974555e-05 -1.9768277224213346e-04 -7.7500437849320995e-06  2.8910813222446032e-06 1.5524946051809126e-04 3.3144516503646066e-05  6.5448890012710345e-06 3.0616498539121755e-05 3.9732691606153699e-05  1.3123048448180072e-05 4.4781656191116442e-05 2.5458542540108928e-05  -9.9748113880270907e-06 -2.5631945515467965e-04 2.6509372831127191e-06  -3.9151871742395050e-06 2.5615904025497513e-04 -6.1057423788163933e-06  -2.0359490864327601e-05 1.3391180072754708e-04 -1.9687797774893245e-05  -4.1328832316326837e-05 -6.9334858192595056e-05 -5.3060735113378578e-06  -1.7921107690744722e-05 6.6948175999888623e-05 -3.8268283359907153e-05  3.5310505769784356e-05 1.3326431471675406e-04 -4.2027874694283947e-07  4.7658121953242244e-06 1.3183890747845849e-04 -2.6844124069560431e-05  -1.8831278864950320e-05 -1.2495657828553631e-04 3.0364514439466198e-05  3.8447481444660919e-05 -1.5953877349346020e-05 -2.3205373388449095e-05  -8.0052921889050076e-06 1.5162153495968330e-04 2.0712438333778265e-05  -9.3261079161638609e-06 -1.1748446994142218e-04 -3.7610836779968349e-05  -5.6828614267004148e-06 -2.5423086449121829e-04 -9.0609467487106679e-06  2.5449180265975378e-05 -1.7444005495473918e-04 2.3915763451659781e-05  -3.5236444139733915e-05 1.3414121173964334e-04 7.2299675749947933e-06  -2.5380118096437366e-06 -6.9821642409036565e-05 -3.9875825925480846e-05  -3.4229209713380349e-05 1.1995271627734976e-04 -2.2590741644303613e-05  4.4135703665553787e-05 -6.8325548598831761e-05 1.5612270728469933e-06  1.8773221239997220e-05 2.1492579674917952e-04 -1.4171812762084565e-07  1.2330000267764174e-05 2.2607215202411095e-04 8.4093054221873769e-06  -3.4103316009300374e-05 -1.1394156946289460e-04 -2.1174147192757058e-06  7.6686083030478039e-06 -7.7016506875626062e-05 -3.1824327078023966e-05  -8.7321734417961429e-06 -1.2965896019509623e-04 3.8929769083353432e-05  1.9514222265857910e-05 4.9158877865883611e-06 4.0947067778149507e-05  1.7325274273516744e-05 -2.2848046179761911e-04 -1.1950367556336474e-05  -3.5929876958986150e-05 1.0943271653890233e-04 -1.1368332275795086e-05  3.4708949271233238e-06 2.5956608297118925e-04 1.9646653220963578e-06  2.5948896040355049e-05 -6.3809628388876766e-05 3.1163349203796528e-05  1.8141162082883307e-05 -5.1634261482553567e-05 4.1517698190520544e-05  1.3578270498908032e-05 -2.0778958033530114e-04 -2.0804702575617817e-05  3.0109871653961096e-05 1.9525153850467154e-04 1.9667349713053919e-06  1.0232508650233427e-06 3.1302030238338891e-05 -1.5998550316966782e-06  1.7965201117045128e-05 1.2063848340797765e-04 -3.0092581993743185e-06  -2.9924809147324640e-05 -4.3830795755256250e-05 -1.7074354873303884e-06  1.2698289513227178e-05 -1.3936177597348917e-04 -1.5050283324985887e-05  -2.0153820506290324e-05 9.5007840909850521e-05 -1.1340524428815168e-05  1.0445248896337982e-05 -2.6749091711996356e-05 2.6041554628270658e-05  2.6209122409909360e-05 -2.9537629670231841e-05 -1.5756002918308113e-06  -5.3172813961944319e-06 -1.6422293163318431e-04 1.4478854960544239e-05  -1.9053624726502635e-05 8.2917603732056853e-05 1.5182157610471137e-05  1.4471975537076934e-05 2.7440001750912486e-05 -2.5829922372665357e-05  -1.5376349609826691e-05 -1.2807465994617940e-04 -2.4799899245470765e-05  5.6053235076520826e-06 1.1274103317815588e-04 1.8011616341965669e-05  -4.2558710055256025e-06 1.5528691393058749e-04 1.0743287400284043e-06  -1.2039462336666984e-05 -6.5313825163375213e-05 3.4087263363268071e-05  5.1619585446835974e-06 1.1961821286252831e-04 -2.0648235017764841e-05  -8.4883491454092706e-06 4.2270071579563959e-05 -3.2941192746243901e-05  1.6091206903222188e-05 -1.2633913950950280e-04 9.5287287574454902e-06  2.6681106576942683e-05 8.0480849633012412e-05 1.1558068520071726e-05  -2.7275190182518119e-05 4.2205840725259010e-07 -2.2417688663424672e-05  3.3876295687119427e-06 -9.7502884866550383e-05 -3.4209581783555831e-05  -6.3139229622334184e-06 -2.0820420403961837e-04 -1.1515971432984840e-05  -2.3208995653122773e-05 -1.3288963021846519e-04 1.9688924947293770e-05  -1.9921835877458850e-05 -1.6674773233279252e-04 -3.1170339786466850e-07  2.7773261203750157e-05 -7.1976465580348082e-05 -2.3275000214688503e-05  -3.6045153813743763e-05 6.8159521632541234e-05 2.4907893935051716e-06  5.1853001987729551e-06 -1.4114096992210229e-04 2.9102781333198865e-05  3.2334154164596059e-05 7.3392181231577344e-05 -1.3731612097789080e-05  -3.1401387995773320e-05 -1.8924129417371717e-05 1.9921382539398065e-05  -2.3298406159767372e-05 1.7292776574462937e-04 3.6196717716156888e-06  2.9713106287683758e-05 -5.9010246682317354e-05 1.9886654948911114e-05  -7.8199829878441877e-06 6.1453042365463903e-05 3.1893961095566191e-05  1.0652224131317578e-05 2.0657874748911172e-04 1.2138459833992952e-05  9.6033385321668338e-06 2.1530149894961870e-04 -1.1289716262163975e-05  -1.1357901445221421e-05 1.8800971500034902e-04 -1.6525248042994529e-05  2.5121374634581446e-05 -1.5999770525343106e-04 -3.6963572928989035e-06  -9.9455924017479792e-06 1.8157235325313553e-04 2.1233406493146792e-05  8.3373919323732289e-06 -2.0863956817879944e-04 3.1579557950153223e-06  1.7387217005273544e-05 8.1782002337445434e-05 3.1526371217379674e-05  -3.1653231455819453e-05 -1.1527199817400474e-04 -1.5198804636292434e-05  -4.5140378872570908e-06 -8.2540308271376016e-05 -1.2086538487860888e-05  -1.1052742256818313e-05 -4.0690889587197334e-05 1.6025546036868586e-05  </DataArray> 
</PointData> 
</Piece>
</UnstructuredGrid>
</VTKFile>