<?xml version="1.0"?>
<VTKFile type="UnstructuredGrid"  version="0.1"  >
<UnstructuredGrid>
<Piece  NumberOfPoints="201" NumberOfCells="657">
<Points>
<DataArray  type="Float64"  NumberOfComponents="3"  format="ascii">-0.001010276334584346 -0.0008383030690013212 3617.637822056052  -0.001410813125895043 0.008266837165089221 -3617.637877086749  191.3735037770068 0.01136290595200753 -3440.552564331595  363.9892018373846 0.01440756190412547 -2926.65106004672  500.9422372805322 0.0009454578195212177 -2126.28483925809  588.8451026733962 -0.002399332794365173 -1117.831588378046  619.1345775916267 -0.005501270346998427 -0.001027425345299807  588.8441229695344 -0.001158342209053954 1117.832362223939  500.940097562048 0.005876667308930842 2126.2782848826  363.9906925050955 0.003517871294753931 2926.647175629156  191.374739937557 0.001035435607099861 3440.551572435082  242.4625149945757 -1131.395176451476 -3145.203426493936  240.8765344597075 878.8364208354633 3223.332242908986  589.3631247189096 -1007.55670512567 -536.2549832410764  424.3965301860852 -1099.199998588451 2412.105764018087  536.0813471713861 1018.975911001213 1521.068749487056  533.8535322150086 1018.964430643347 -1547.602704710439  270.733935578648 1012.708751647847 -3103.794447539741  93.29254482288692 -1012.612942835902 3440.619169312848  421.6397501966882 -1012.852362924884 -2463.125098385879  293.5515378426676 -1987.075886729094 -2545.635113155357  436.1250706399142 -1947.90761573017 -1753.228204042855  299.1145777523386 -2784.25425209516 -1684.085137366599  421.4099085254569 -2613.282712970404 -829.3300806674469  264.48572254828 -3314.862925905634 -704.5091002601609  376.5475372508233 -2975.107035016018 178.2049412960127  197.8296043616106 -3541.492681927989 321.5374180035449  286.9100650693824 -3076.820147883132 1219.754980928042  103.3664880243032 -3447.566108831718 1297.125864440845  183.605655200477 -2812.110553091219 2143.004684206212  -7.135588076252951 -3020.589297244592 2147.186340732042  439.892326544336 -2417.349095606275 1029.283072643006  421.6400847036218 1012.850951489969 2463.127284445849  427.2724225535061 1960.737090076405 1813.330469970763  517.3978675173665 1879.07935564601 820.708030890939  68.67553334153943 -2244.320796130962 2871.902059403658  251.4564992271682 -1968.184964649833 2707.811554380293  293.5176612490551 1873.738561813481 2624.360501371356  282.8719949018667 2741.183978323782 1838.314081575535  590.4896065038125 -982.996655119571 536.1849456647909  520.7162512601586 -2031.228557459616 62.09450033524767  537.2665679262715 -1019.887237241508 -1506.136935438561  93.29151265940676 1012.622065237974 -3440.626313319668  417.4465927161916 987.4367053458212 -2496.874626939525  424.0024322205718 1950.174272141947 -1849.723573683303  128.3579504762292 -3344.699565490504 -1460.903279469191  -89.80606305295761 -3488.519282359876 1227.979929472848  125.2404721020742 -2037.896968575903 -2948.680453849885  513.8620667557051 1901.478468323618 -848.1426253706338  384.364713558634 2746.642418094048 -1020.958921248459  272.9267180116709 2672.869716281763 -1977.707768422395  215.5142125955068 3328.748327333864 -1100.787518574257  95.20688058748206 3125.527596500869 -1924.58899225148  27.87706815117672 3603.626013126706 -998.9349105923931  -97.60389497420233 3215.843994956495 -1776.597215899038  -161.0647662569345 3539.257706862675 -753.3666376158516  -283.8104431128204 3022.77633563484 -1361.65459083997  -30.98080994687218 3748.1730733926 66.7101645979553  -197.8587815458443 -2903.88070480395 1979.877986007224  -273.3148949987491 -3211.541367215907 980.1851416589059  -333.2352490471764 3141.431592813939 -367.9736207782022  -440.0980182862641 2457.471820938432 -933.7482789200166  -468.7820221853727 2452.102243388573 83.55708384025749  -549.7838282640513 1617.958489710452 -583.6259590977958  -557.3106115708562 1535.771435635455 544.5544614060917  -488.4414638298774 1533.408319741393 -1661.927917765594  -450.7871200881317 2268.990104517207 1172.031407925943  -581.5671359692699 670.7360272928747 -1059.82930497607  -514.8529796219066 1262.41726499463 1600.086950745552  -495.0758712489373 430.5372256781171 -2132.756816307333  -555.9104218596996 -487.1163419191852 -1522.237345448847  -383.081198815655 1902.68838541765 2172.156457675059  -85.55240499271687 -1554.982473091546 3254.477616236022  -373.18107646447 -2483.70009912581 1614.897852152126  -444.8938493348239 -659.779248920129 -2434.5671697326  -480.6807935981633 -1548.668806795945 -1724.835771247498  -594.9044695436361 425.678993673332 914.6398534403091  -207.0796432973713 2503.197498607985 -2409.30053414354  -423.6479384643069 812.4789074715629 2519.6335621981  133.2221344122871 2529.300791597 2557.296310724519  -573.2447289875307 -1268.816240757259 -613.1106580869883  -360.4664291917588 263.5047134015147 -2930.534209853444  -280.864451577768 1447.609623557679 2906.760959965569  -346.424557574372 -1665.764805036 -2532.878866631737  -362.7801063641979 -2480.357052633818 -1698.357220291718  -305.7674686580966 2792.994206146308 1629.001881433857  -156.1628595749982 -3624.384434935669 232.8053859085848  -295.771866453566 243.7345931082903 3169.621581029173  -436.9923126410623 -352.1695010835541 2540.442113141895  -209.4120969884341 -2487.172009246092 -2417.817563305454  -210.1408137954093 -3170.904545256034 -1497.5266784453  -180.4265646329985 -1574.8691535169 -3110.133068532344  314.1148603605113 3233.819162836042 -102.0701409971922  -422.3470037070043 -2664.214292262735 641.3360388166464  -508.4369889948696 -1799.409368674219 1122.113829992294  110.9514573646023 3256.598740394601 1678.22608329253  -40.04933546840292 2937.005593348215 2240.550847549759  -13.8711246929634 2212.97282162679 2920.940977447399  -167.7682023015844 934.9809804481415 3363.754485969149  -279.8103601680543 -2030.972538522109 2566.156027039117  146.0633048427996 2472.746215630857 -2584.61811991051  -347.2177758307473 -2998.924151143881 -789.5979632140804  -45.86813888334484 1896.852146213365 -3110.218638024981  -101.6283480875692 813.289611343255 -3481.452855968612  -68.94514700911817 3505.963957622524 1227.788319591554  -130.8488690648806 -575.6582184449538 3492.160788917609  -44.76979831541914 -3075.564608477524 -2057.315244775716  -282.7169697657665 -925.1570008297257 3092.677066671734  -435.8340059813767 -1489.653607273928 2131.743284341533  -542.5068056908976 -716.0996830855657 1601.37051296861  -593.5620857661863 -929.7111182628159 507.5729810680226  -616.4700289133951 -120.9339699756841 -314.225918967932  -237.8764786577318 1611.736307466554 -2957.016882312351  -360.7717333201281 1782.951166928319 -2386.211356143608  -52.6918488209635 -3532.61592990396 -1183.448130598687  -21.07291086855649 2772.999976795033 -2435.062474006014  247.0538310033038 3299.907106875102 944.5022000457233  533.6782605827742 -974.8276003615018 1575.840608034791  30.94660513768374 -1062.685106708495 -3464.917545137101  97.94336339998318 -3661.02148709736 -557.04757507409  -188.6262052230009 2397.372089662142 2556.443144532156  591.8770265619593 944.6611768654867 -547.6848966656739  395.7566981121834 2721.72763189294 930.4513166516119  466.8232862265069 2466.951094701539 -41.34437753987451  -472.8527990587758 -2231.097910386968 -914.608785308467  -205.2863426812811 3529.562141691496 281.5557553105883  -344.3511117093443 3044.069367486071 661.6370640432743  -33.59417429921163 -2294.425750204606 -2856.377298506599  -144.315983367799 -418.77301917398 -3494.8040403951  -304.228093611793 -672.1553613649911 -3083.659152121314  143.14634272683 3647.003421238051 -184.7760941854099  16.77640988511898 -3728.895926335079 401.9178378629161  342.024652303526 -2371.586828495733 1968.050567930968  592.9228342976153 956.7489826975685 486.0963506792424  270.8873192568642 -1005.405971595304 3105.536903664117  -523.7859701960391 -2000.894830184998 89.31692819458431  -110.8769734843727 -2476.142220308453 2640.630091368457  301.7664332794425 1816.544535060342 -2629.762432369746  -530.5092461394142 299.235834469045 1842.975518850658  139.0698458275125 -2794.762971008131 -2274.359385000097  151.7158960873261 1802.173886408484 3047.193782830229  88.27043590549096 3630.57346725521 760.1220337061637  -385.221474519691 2353.143404409572 -1697.84480971865  517.8938640891479 -1809.565766920803 -945.3939758917378  -9.477482474717942 976.0690508089644 3492.75124222452  469.0996614687511 -1761.044080968814 1642.656900564326  -601.1624622302252 894.8156495188532 -82.27778446996525  -320.223591777478 -3213.301970382521 34.89085478867138  -195.5819979393954 -3507.011719558886 -599.3885250786564  555.5300046244018 1658.53534235912 -25.16984811339472  -138.2494265047314 1848.937985898208 3043.024791229709  172.0293960919631 1679.063615400428 -3075.55802006211  -208.79147232661 275.7081212125629 -3395.438639099485  -226.5144836293533 3284.035851323783 1149.181640249493  526.7039413379787 -1683.041193771085 994.7995574919655  -42.20574609710598 -3725.798553098059 -363.178011909538  -397.1526129766929 975.7828167914541 -2611.512357127428  -271.4417745693175 829.1689474310905 -3151.880231863254  -173.2367070690434 3019.503103061696 1896.120067506127  -435.5397592902423 -2661.058542157531 -202.3524477173186  -0.001382868799328729 0.0002213909344864526 -0.002215930336155701  -197.4501510199495 -1469.040294724041 100.2057255502648  298.5330943443493 572.9241604516989 -16.540224133584  -118.9451981469365 1544.062430967735 796.9576979508537  222.5366345148653 -1094.604520910052 725.0305297375767  -144.9760606581112 160.2091832769551 -1610.731137252039  -307.0378827080107 291.5997018136128 1.331028878436641  58.67104570027165 1746.518432730202 -692.0366186548365  207.3918937380315 -860.6905140654854 -1083.71986403267  -161.3155109945465 -163.5314251768133 1562.252171225564  154.7036730095031 1299.531245719732 1259.703223599687  -57.12957101801474 -1482.974962947738 -1368.389122563885  51.10646942796802 -2141.842503804748 6.690650994151674  123.1710732689778 568.7804776664073 -1793.3
[...]
<PointData  Vectors="Velocity"> 
<DataArray  type="Float64"  Name="Velocity"  NumberOfComponents="3" format="ascii">-4.5190151155897416e-11 -3.7362064213172305e-11 -8.6338010434304615e-08  -6.3103599623340921e-11 3.7070160543385927e-10 8.6335621689957293e-08  -3.7050132743716137e-09 5.0942998578812849e-10 8.3251331294370106e-08  -8.1587635450586087e-09 6.4578914205095141e-10 7.3401420314014951e-08  -1.3284521042403223e-08 4.2305076213395410e-11 5.5638194917952277e-08  -1.7756577514079677e-08 -1.0794274828080517e-10 3.0257213638005997e-08  -1.9287832916826440e-08 -2.4704726880576810e-10 -4.5959504860886736e-11  -1.7800512397489145e-08 -5.1813916428481036e-11 -3.0222571171261027e-08  -1.3380419022625143e-08 2.6357880813521246e-10 -5.5931809862692803e-08  -8.0921874517389288e-09 1.5776779075711993e-10 -7.3575678922530880e-08  -3.6497795426495093e-09 4.6528465967244029e-11 -8.3295864401931933e-08  -4.2629054235061580e-09 -4.3569328998562963e-08 7.4149518536709097e-08  -4.5279342763459248e-09 3.3999827579961032e-08 -7.7221831128594448e-08  -1.6541715558039125e-08 -5.6926941119303573e-08 1.4159068318216340e-08  -9.2017304164564129e-09 -5.0303256036479756e-08 -5.9595289922296167e-08  -1.3952248214182923e-08 5.3447813386211528e-08 -3.9450474068754000e-08  -1.3850229645562695e-08 5.3457475385499434e-08 3.9957619737934237e-08  -4.9593025577526870e-09 4.0091957326121034e-08 7.3882417572748171e-08  -1.5303837821561308e-09 -3.5799238476910524e-08 -8.0266297743251484e-08  -9.4355783955047322e-09 -4.6527184290915070e-08 6.1322905307217247e-08  -4.0454724842576338e-09 -8.3131367976141838e-08 5.6211332354315066e-08  -7.6899616826787394e-09 -9.3515897692167371e-08 4.0637346888488930e-08  -2.1870650630929337e-09 -1.2234437276629805e-07 3.2929715819067026e-08  -4.9772422794473601e-09 -1.2766238825388148e-07 1.7316556423504615e-08  -3.5162322093950129e-10 -1.4745084089635395e-07 1.2155778271126313e-08  -2.6570977083277318e-09 -1.4190449164625597e-07 -3.4609045545929329e-09  4.6940622341862668e-10 -1.5391840357421409e-07 -5.2162953399214304e-09  -1.0599122673664510e-09 -1.3655165137344271e-07 -2.2418987221502401e-08  2.2227511455426123e-10 -1.4236081357864931e-07 -2.1011493410931824e-08  -8.4738362348697514e-10 -1.1407731360951202e-07 -4.0706149558654233e-08  -2.4322127621077215e-11 -1.1854711794786416e-07 -3.8527767088550658e-08  -6.3652870695329585e-09 -1.1929531758194564e-07 -2.2459515588820778e-08  -9.4207236163583354e-09 4.6463900810332955e-08 -6.1224952983666170e-08  -7.2578301092995085e-09 9.3116359849034450e-08 -4.1702994255957777e-08  -1.0693151113298889e-08 9.8939631025841979e-08 -1.9838950659754039e-08  -5.8759337815915969e-10 -8.5047576975235849e-08 -5.9701427912186828e-08  -3.4137590512863487e-09 -7.9718408680995799e-08 -5.9481132268342735e-08  -4.1717801827710731e-09 7.7843797619939335e-08 -5.8563446703332891e-08  -2.1178150528891687e-09 1.1829658193900392e-07 -3.6187504346655804e-08  -1.6655719339104893e-08 -5.5247850498757482e-08 -1.4242176841474731e-08  -1.0574530227546021e-08 -1.0796522376191523e-07 -1.5670387557366735e-09  -1.4073874206780678e-08 -5.3601307540777041e-08 3.8879761854763937e-08  -1.5765513510039968e-09 3.6207988468202741e-08 7.9946349005009937e-08  -9.1689338996545128e-09 4.5018752032555018e-08 6.2013047490191810e-08  -7.2067951293445181e-09 9.2094835618242640e-08 4.2444716728706451e-08  6.3656663730713991e-11 -1.3817951387835696e-07 2.4314522409008748e-08  -2.5737200878203814e-10 -1.4407954085061243e-07 -1.9617308456198123e-08  -1.3931542993211308e-09 -7.6657488019339343e-08 6.2862894138646612e-08  -1.0635879407842808e-08 9.9892968443401707e-08 2.0327727849686150e-08  -3.6012039179686603e-09 1.2960548903523565e-07 2.0630354856994551e-08  -2.1604619170841380e-09 1.1379645382031403e-07 3.9091297602101540e-08  -5.5309029459040109e-11 1.4311114022741444e-07 1.8764531730199157e-08  -2.3967046166590540e-10 1.2529892078731161e-07 3.3898360167396361e-08  2.1834885118979999e-10 1.4871570213064228e-07 1.5398612711958221e-08  2.3803887853949873e-11 1.2999294700806959e-07 3.0666830430671379e-08  -4.0299992726163027e-10 1.5036051741921548e-07 1.1907248000260999e-08  1.3241708718265812e-09 1.3290053094944526e-07 2.5239396605770444e-08  -1.6518883219480375e-10 1.5692435919778160e-07 -1.0713370759019623e-09  8.2371680621119731e-10 -1.1965344031900944e-07 -3.7048379747420874e-08  4.9092031861846628e-10 -1.4252045677540201e-07 -1.7403187750329390e-08  1.4028189909469572e-09 1.4561949936671104e-07 6.6566063271665253e-09  5.9675669036167216e-09 1.2134690747796615e-07 2.0243914283016811e-08  6.8110338345424136e-09 1.2502439152458382e-07 -1.8862030845475880e-09  1.3150137863256696e-08 8.7621930991076167e-08 1.4622445913046792e-08  1.3739337215162055e-08 8.3683076268621987e-08 -1.3769999715892648e-08  1.0629714392680945e-08 7.7116626907458976e-08 4.0662805551589303e-08  7.0360207268298100e-09 1.1223061076861797e-07 -2.6260001962467026e-08  1.6976452247565222e-08 3.7115378168584590e-08 2.8235996316061845e-08  1.2390025916336819e-08 6.5263137840965572e-08 -4.0574377006668969e-08  1.2830224528431789e-08 2.1607458691100518e-08 5.5625412603431277e-08  1.5676880806879162e-08 -2.5832117954500173e-08 4.0419484955001135e-08  6.1116487889044930e-09 8.5860662988328997e-08 -4.9460363546846166e-08  1.2021241692384358e-09 -5.6246615023586520e-08 -7.2986248972230229e-08  4.4377815513579150e-09 -1.1473234738112357e-07 -3.4145901890605677e-08  1.0738616684282749e-08 -3.0733409673808009e-08 6.1938736287312032e-08  1.0315692010968457e-08 -7.7044020426502177e-08 4.2056380440738061e-08  1.7880881527404361e-08 2.3825647278843985e-08 -2.4767656177904315e-08  1.7564158381027168e-09 1.0093593387378461e-07 4.8438761755841017e-08  9.6422235399968144e-09 3.7058841014398501e-08 -6.3273010191091741e-08  -1.0232813441458553e-09 9.8453127476338903e-08 -5.0863279614502872e-08  1.5188666664089740e-08 -7.0487133217758533e-08 1.5789635044831764e-08  7.8885507482383736e-09 1.1544676614290331e-08 7.3222528071511049e-08  4.8481148489783484e-09 5.9018548956868949e-08 -6.7647727682119458e-08  5.7914943048314883e-09 -7.1775257760436784e-08 5.8524108845229068e-08  4.1893502464243078e-09 -1.1333000334465063e-07 3.5666317556484349e-08  2.2974462280276326e-09 1.2352179603950174e-07 -3.1884169811001668e-08  -5.7017087618876615e-10 -1.5544439549815551e-07 -3.6922028474417833e-09  6.0133220508393293e-09 9.7451380440381081e-09 -7.8064101323559054e-08  1.0683194667360315e-08 -1.5899971432352110e-08 -6.5201773666140883e-08  1.8228618839920284e-09 -1.0022991173212119e-07 4.8920829539494204e-08  3.3396801663066414e-10 -1.3443236175761473e-07 2.6357656238034992e-08  2.6160864673200035e-09 -5.9158851319607027e-08 7.0068678419200894e-08  -8.8937946733071339e-10 1.4822312274993913e-07 1.7595447296007010e-09  4.9150660698770418e-09 -1.3095240677871602e-07 -1.3304085266940685e-08  1.0644969928455914e-08 -9.3346931588554911e-08 -2.7096291399069773e-08  -1.1158551011819583e-10 1.3309100176418128e-07 -2.8713611525542072e-08  1.2084359749797332e-10 1.1518241280626690e-07 -4.1173648838344072e-08  1.7670033567284529e-10 8.2518851904119714e-08 -6.0370267456214652e-08  3.0214549621046543e-09 3.4981755046169655e-08 -7.9387179191556960e-08  3.9491859961925754e-09 -8.4391591377737973e-08 -5.6312357402514536e-08  -1.2062815898656751e-09 9.6556625929030764e-08 5.1845762715060029e-08  2.2443025907833723e-09 -1.4011106813631067e-07 1.4935076517288731e-08  5.1229159256811130e-10 6.9110497209154634e-08 6.6905204771429726e-08  1.6542566146326335e-09 2.8965370579894258e-08 8.1848882855362420e-08  -2.4020361531523810e-10 1.4460923692372914e-07 -1.9530273319057324e-08  2.3227532913312046e-09 -2.1331601227425296e-08 -8.3509490800998507e-08  5.6624583372825246e-11 -1.2187711151985274e-07 3.6462087435661580e-08  5.3766708780972410e-09 -3.6260294657493168e-08 -7.4430388301781961e-08  8.8848887390434435e-09 -6.9926479170574996e-08 -5.1371327075165742e-08  1.4810099903591041e-08 -3.7881019490562258e-08 -4.2165744009459273e-08  1.7081833417502397e-08 -5.2586026527072340e-08 -1.3424811820519734e-08  1.9285774256365558e-08 -7.1247140440949205e-09 8.5914594514613128e-09  3.5876869557252602e-09 6.3375449958451593e-08 6.7041851600821077e-08  6.0389338061485591e-09 7.8048168180230465e-08 5.4714671604969183e-08  -1.8457726594912776e-10 -1.4555789110888546e-07 1.8561357473289659e-08  1.4166915474948582e-10 1.0708190438706244e-07 4.5885229841174041e-08  -2.6215176959797238e-10 1.4449409576032782e-07 -1.6271825731736353e-08  -1.3696685548823117e-08 -5.1182693720654507e-08 -4.0798291337440320e-08  -4.8305328468262595e-10 -3.6923842487039520e-08 8.0219742920835501e-08  4.3813294065444326e-10 -1.5452756034597642e-07 8.4763124903496556e-09  1.6726136300901868e-09 9.5121378797127159e-08 -5.2275839223203210e-08  -1.6842024600010393e-08 5.3055269407671264e-08 1.4600843625105598e-08  -3.9699969710095653e-09 1.2994150370835214e-07 -1.8954170017617690e-08  -6.7203629754245747e-09 1.2563496807623875e-07 9.7109790439611448e-10  7.8462009702893656e-09 -1.1284398134757808e-07 2.0711032283255477e-08  -4.8503535077739187e-10 1.5346546860883583e-07 -4.5373997380660035e-09  1.8096721646163979e-09 1.4121780489284977e-07 -1.2452099539996394e-08  3.5311490434243108e-10 -8.5780755974490220e-08 5.8479527200743265e-08  2.5964475481268761e-09 -1.5084463111198264e-08 8.3754238774870888e-08  6.1295243468131261e-09 -2.6815632908314780e-08 7.5401573693497706e-08  5.8269609620374935e-10 1.5576441314503097e-07 2.6416014749236906e-09  1.5730907760390614e-10 -1.5618635014499710e-07 -6.0250430115778938e-09  -4.2177951634690665e-09 -1.0554141378597533e-07 -4.1926848675365839e-08  -1.6923442559392007e-08 5.3847730056529695e-08 -1.2958270726731059e-08  -4.9188837504351245e-09 -3.9210555411883270e-08 -7.4144496485458515e-08  1.0739650266718261e-08 -1.0709303074382804e-07 -2.1661957493529261e-09  9.5178352011699018e-10 -9.5709058112317666e-08 -5.2981658971824837e-08  -4.5122491487627572e-09 7.5313002187822940e-08 5.9089644062691391e-08  1.4643731093393053e-08 1.5723008694984952e-08 -4.8854532538788135e-08  -7.1851876526138287e-10 -1.1091459938675228e-07 4.3105810609464811e-08  -1.8937001457393720e-09 6.8090993249580692e-08 -6.6857018040798282e-08  3.4392107763212854e-10 1.5166876687100578e-07 -1.1675678723632620e-08  4.9287630124045349e-09 1.0880421835099306e-07 3.6495259405955902e-08  -1.1099492588514444e-08 -9.4951839122308911e-08 2.2803206254628095e-08  1.5620726405521825e-10 3.5202863597586873e-08 -8.1496615842838491e-08  -9.2732226534990356e-09 -8.7100101745040123e-08 -3.9281204589155624e-08  1.7326347843482947e-08 5.0968198702001829e-08 2.1880060766166891e-09  1.0019802657730778e-09 -1.4823379886459182e-07 -6.5381947554220930e-10  -4.2750148533936296e-10 -1.5181308486025651e-07 9.6456388207590535e-09  -1.3106940438789062e-08 9.0508016472835110e-08 6.0773429011283262e-10  1.7365480697079993e-09 6.9651556486696090e-08 -6.6331606125971496e-08  -2.3430666348146924e-09 6.3256885932218986e-08 6.8408996442798609e-08  3.8719857309713605e-09 1.0929604142202041e-08 8.2139411061523868e-08  2.5134893413672120e-10 1.4169414364903454e-07 -1.9802780378299461e-08  -1.1778158566767424e-08 -8.9013871142288897e-08 -2.4591950693920966e-08  -1.9391542979188534e-10 -1.5639047048088882e-07 5.4452701651077419e-09  8.3893108931645183e-09 4.3260870175095916e-08 6.4315246775790630e-08  5.0897608844812177e-09 3.2526905239636530e-08 7.5718176219569237e-08  6.4185656138153666e-10 1.2412432274690530e-07 -3.4574949758974704e-08  5.0863595002184622e-09 -1.3226889789998537e-07 4.0985384719651708e-09  -6.1994242412452174e-11 9.6448191677238714e-12 -9.9223597832890171e-11  5.0314427333896113e-09 -8.2696453850348000e-08 -2.5139395006855821e-09  -9.2202126008823014e-09 3.3513928987526896e-08 2.8645238206619913e-10  2.9071464287192422e-09 8.4681740931423263e-08 -2.0077198266350071e-08  -6.1127787540719360e-09 -6.1796917892316067e-08 -1.9065292324567858e-08  4.1828301563534913e-09 8.4031356071201898e-09 4.2984383973989345e-08  9.7728586699422175e-09 1.7255280432541958e-08 -9.9514390480471014e-11  -1.3588910640620749e-09 9.4863324350042087e-08 1.6963788447012599e-08  -5.8523809345495333e-09 -4.8148342414796473e-08 2.8429513322464971e-08  4.7787716391657415e-09 -8.8817423012044828e-09 -4.1728284128591942e-08  -3.9689436265832200e-09 7.0118378751811159e-08 -3.2059307035995722e-08  1.3730316917771494e-09 -7.8401752552586907e-08 3.4008104838835524e-08  -9.6418909634800430e-10 -1.1478428852426816e-07 -2.0818411160408868e-10  -3.3744039347112136e-09 2.9822369483130946e-08 4.7107183215471551e-08  1.1314724340426280e-09 -8.7028743719875685e-08 -3.3305480725969513e-08  -3.0336415256222176e-09 -1.0338126986849804e-08 -5.0679948443096981e-08  5.0532901357609134e-09 8.9171339945219839e-08 1.6837313018451333e-08  8.8509780275130088e-09 -4.3499042085523049e-08 2.6661758513114705e-08  -9.3538293974053635e-09 5.6716574576812300e-09 -3.4645792270753510e-08  1.0047136194328096e-09 5.0614447976385849e-08 -5.1533783323403992e-08  -1.0654830254659219e-09 1.1953257034331475e-07 -1.1748928884477754e-08  -6.6971724289902087e-09 7.3353126426708347e-08 2.7795172124085768e-08  -5.7311692983480702e-09 1.0320874804907927e-07 -2.4746418913806054e-09  8.5544868838461054e-09 4.7461624436362705e-08 -3.2231595246248062e-08  -1.1175596144122082e-08 -4.1463120278022078e-08 5.1220460830768939e-09  1.6224767705670195e-09 7.5486061901964862e-08 4.4035774381794104e-08  1.0472176583294220e-08 -4.4851195176252953e-08 -2.0912367088612666e-08  -1.0576370842011773e-08 7.5789806588829363e-09 3.2086141522454364e-08  -5.7848578043679383e-09 -1.0169026854534617e-07 7.2721200758814862e-09  9.6335292588676956e-09 3.8209045687838266e-08 3.2259320646944264e-08  -1.9685548611932071e-09 -3.6268164260926961e-08 5.6105305702161785e-08  1.9379606218272466e-09 -1.2127863504275379e-07 1.3420314745141989e-08  1.6845439790578390e-09 -1.2612751531569190e-07 -1.2275181387412156e-08  -2.3803226190783235e-09 -1.1119913577345363e-07 -2.5324247005435730e-08  6.6602112988932465e-09 1.0103077082800941e-07 -1.1298014460179503e-08  -2.0856291210077328e-09 -1.0861414200633252e-07 2.6207168441677461e-08  1.1444092228682058e-09 1.2844079260114277e-07 5.8296101603524339e-09  5.0655983725948899e-09 -4.7588374270052747e-08 5.1575667785094346e-08  -9.4357058307890800e-09 6.7140741447187768e-08 -2.3667375126559004e-08  -1.2237141598056488e-09 6.4445902990699471e-08 -7.5419205389578743e-09  -3.9482910061732060e-09 3.5300844933416182e-08 1.7253145392623513e-08  </DataArray> 
</PointData> 
</Piece>
</UnstructuredGrid>
</VTKFile>