<?xml version="1.0"?>
<VTKFile type="UnstructuredGrid"  version="0.1"  >
<UnstructuredGrid>
<Piece  NumberOfPoints="201" NumberOfCells="657">
<Points>
<DataArray  type="Float64"  NumberOfComponents="3"  format="ascii">-0.003974825754091571 -0.003244211705073487 2646.715812600282  -0.005549605465294444 0.03288724439505833 -2646.716000511741  140.0732437460253 0.04516229518044509 -2517.076085746864  266.3372092811239 0.05720751835014237 -2140.92556805341  366.4006833259111 0.003724961564452555 -1555.270407407308  430.5413757209122 -0.009684395991713991 -817.5655648899102  452.6436789197739 -0.02202710114813581 -0.004043135842411718  430.537477352738 -0.004557637608496004 817.5686203025138  366.3921916162371 0.02340101979400038 1555.244449363284  266.3430338396372 0.01400256174507516 2140.910086215488  140.0780834480239 0.00415790653818128 2517.072118298438  177.4982162485923 -832.84158291631 -2301.143483012322  176.3161031577133 646.9397372433131 2358.21633054829  431.0090149912681 -742.9896961199946 -392.2348903900951  310.5610125309433 -809.7171796262614 1764.587900554049  392.1216828418321 751.1125878296041 1112.611414109533  390.4953330731331 751.1049448854549 -1132.033140647429  198.1804614733906 745.5531390263651 -2270.796162149061  68.30403975972973 -745.1733896627238 2517.340396693937  308.5225227070256 -746.122638143452 -1801.877411374738  214.9792669011927 -1463.198393979067 -1862.753968469741  319.2711195285935 -1435.223692579819 -1282.777149905743  219.19287948811 -2050.624363833711 -1232.628180373585  308.6756203864103 -1925.628637024388 -606.9305106370175  193.9307488448961 -2441.546225236504 -515.7668072996605  275.9436223534527 -2191.99280095906 130.4349334038239  145.1087292460044 -2608.206857763896 235.4195310978008  210.3241685724606 -2266.196488810103 892.8758377957903  75.81792202103169 -2538.495118116351 949.7162359252009  134.5827839126678 -2070.45673001204 1568.609421965719  -5.234543437461611 -2223.663466520666 1571.833094222767  322.1294044961523 -1781.340784928806 753.1926410738171  308.5238220580617 746.1170262547726 1801.886078282821  312.8102946402587 1444.603173531143 1326.775523267471  378.6555250979836 1385.140839413644 600.4255884756359  50.31954542310874 -1651.98414819069 2101.764938599671  184.1550572321386 -1449.098951845537 1981.447683397829  214.9453655244992 1379.702628410846 1920.316345530719  207.2866777072681 2018.747646508003 1345.494913904524  431.8268817271871 -724.8576415907152 392.1775146985441  381.0975726223355 -1497.368265369151 45.42328276520831  392.9821071866588 -751.792053177651 -1101.7025018769  68.30000043696273 745.2095555395298 -2517.368657734114  305.4667256285419 727.3754958808705 -1826.577354039627  310.4159368094416 1436.783312557807 -1353.410364827136  94.13353252170094 -2462.758594917594 -1069.582027918467  -65.87625779366866 -2568.651204877608 899.1094995927904  91.74235163698154 -1500.000835208074 -2157.841065507094  376.0667315943833 1401.635733728314 -620.5091512145865  281.6081731406155 2023.565626006062 -747.2202342404092  199.9903706565522 1968.326135779726 -1447.50782620395  158.039648159636 2451.416045450996 -805.8961165525902  69.8010083407169 2301.104497447695 -1408.928445072682  20.45890045402613 2653.396460911405 -731.4464520679888  -71.57429151791005 2367.67466475943 -1300.633801095816  -118.1430100440383 2606.31154725124 -551.6137866108998  -208.0320781869476 2226.301218424491 -996.7326800531526  -22.73109799014073 2759.988514851523 48.84386575413749  -145.0368695952793 -2138.156715277448 1449.246656697547  -200.3954833802611 -2365.42199572008 717.5520519945565  -244.271506260149 2314.231478586028 -269.36910756445  -322.3089478543731 1810.911921882564 -683.2932541930928  -343.2834418794731 1807.239528303503 61.13957127639961  -402.2283502293106 1192.835117479328 -426.9404441280978  -407.7056325282128 1132.280114671454 398.349332513264  -357.4248942749985 1130.073180572134 -1215.821343304768  -330.0706292260456 1672.0344842166 857.6012486861267  -425.2604042095171 494.5561960261909 -775.1761562795568  -376.6666544657261 930.490224166101 1170.477381525123  -362.1313762507519 317.2895776287869 -1560.017514115608  -406.5388330611697 -359.0860901304615 -1113.398340849148  -280.4856897288863 1401.510707266695 1589.355955648209  -62.65163942033837 -1144.389339399149 2381.362060201798  -273.3464030040685 -1829.669101220097 1181.802831121296  -325.4817068625929 -486.060412094961 -1780.89038964753  -351.7563620357138 -1141.259094562854 -1261.853436852668  -434.9760461269286 313.8868583330006 668.9534279321673  -151.7314943171318 1842.972640814004 -1763.335855825731  -309.9802317873014 598.4976141514308 1843.176312700615  97.62229998738057 1861.936284003205 1871.691439866292  -419.2863100270853 -935.5597884443346 -448.4784480868619  -263.7732641096032 194.0718213516636 -2143.786066592758  -205.6175322306977 1065.848479212205 2126.75476179719  -253.6270749362093 -1226.749951908851 -1853.232448015732  -265.7368615254983 -1827.116390873004 -1242.896968760273  -224.0637655682409 2057.118541756183 1192.309025429212  -114.5604594945358 -2669.103932763377 170.4588475123498  -216.4656253248111 179.4437833591971 2318.767663621724  -319.6911596921145 -259.4075375883702 1858.296747936098  -153.4372091298348 -1831.169837709127 -1769.546866270505  -154.0790068015071 -2335.039051442369 -1096.291990515881  -132.123943951573 -1159.18304418251 -2275.719737804048  230.2868976192308 2382.169800162824 -74.72505178750596  -309.3674359665844 -1963.215825131357 469.3567791824423  -372.0874894041658 -1326.312371184548 820.934306624713  81.35623713729326 2397.784787345922 1228.635583028211  -29.36070176849711 2162.126079386758 1640.109839228247  -10.15936917726249 1628.813066213346 2137.678680639309  -122.8119624193483 688.1836789101318 2461.036393406491  -204.90938548894 -1495.480384345237 1877.795364407438  107.0259250507001 1820.326062454352 -1891.656561543059  -254.4648054388599 -2209.32947228296 -577.9652723518221  -33.59957717455632 1396.023145061767 -2276.01077259351  -74.40799904063384 598.5085208803797 -2547.170804234164  -50.57694353384669 2581.482052836467 898.9752590403436  -95.78818128757388 -423.6929805737885 2554.903440822812  -32.82705151301654 -2264.218670412336 -1506.076395846458  -206.9379593466305 -681.0715561689127 2262.603917580031  -318.9714711034739 -1097.467476511799 1559.581476553001  -396.7719053875265 -527.8783819042296 1171.303699622885  -434.0494029675804 -685.5892982265567 371.2542280948546  -450.6898318652449 -89.20006324636927 -229.8140497387143  -174.1838129146126 1186.522995817601 -2163.6529072981  -264.1305683981312 1313.139416282316 -1745.950889295849  -38.65395640001192 -2601.095221652367 -866.5287931917097  -15.44319434745386 2041.271415395892 -1782.412138962095  181.1538140333065 2430.365564357882 691.4659745552574  390.3777915502811 -718.5734507913876 1152.680444605453  22.65930007872304 -781.9745523349729 -2535.162425704948  71.85657239634079 -2695.905023473559 -407.89300063474  -138.205028888793 1764.948028871835 1870.963910239  432.8309179676952 696.5866304648307 -400.5849430058176  289.9357974210858 2005.319100234095 680.9684888297395  341.8536035980763 1818.172705292942 -30.24940031720509  -346.193978157795 -1644.291010425756 -669.2236917959542  -150.5780863911814 2599.425134095804 206.1484051155471  -252.3937936688787 2242.515439992647 484.3057590613717  -24.61022691259957 -1688.780665690841 -2090.468249535878  -105.6443000321613 -308.1918661973675 -2556.824195284472  -222.6584882084593 -494.8537962280486 -2255.920599543497  105.0158926770704 2685.714062442683 -135.312860624847  12.31394911533985 -2745.798925336152 294.3072327264467  250.5139641425631 -1746.790050078234 1440.221215362949  433.5919802856106 705.5082202290554 355.5382292143087  198.2958214718313 -740.1341432080502 2272.055125228334  -383.3369464096017 -1475.060618918714 65.34330054374743  -81.24100641405417 -1822.755700923849 1932.65001408781  220.9699286996996 1337.577457101052 -1924.239786465474  -387.9854920151682 220.5764119077912 1347.998875984071  101.9324962809908 -2057.507234772754 -1664.763372536214  111.1215820209344 1326.518482695532 2229.796077060993  64.7563676525224 2673.370583108346 556.5844348403709  -282.1405626956297 1733.499845919312 -1242.4613899647  378.98985172551 -1333.876288999471 -691.6486061241598  -6.938882963017044 718.3312595175762 2555.481773933815  343.3385267868533 -1297.727112879552 1201.788915177322  -439.605388215389 659.8823599791704 -60.17961296253544  -234.7585380437806 -2367.124809560994 25.53965026496722  -143.4575100364804 -2582.769288468239 -438.8589058770138  406.4454581350076 1222.799800522489 -18.41418141637467  -101.2574833880142 1360.924969417932 2226.776704688853  125.9857498333324 1235.888251244065 -2250.484485756239  -152.8343268989242 202.9767698190944 -2484.072741316648  -166.0923184165508 2418.524963056501 841.3104401859435  385.4017164570556 -1240.662859138157 727.7505774386645  -30.96486079109122 -2743.542252980752 -265.9396443158833  -290.6405023048349 718.7023992000148 -1910.479093548056  -198.6901037828038 610.4102970825694 -2305.926598920012  -126.9937556186972 2223.268612490707 1388.002402981044  -319.0298540750662 -1960.996326529902 -148.0971971219292  -0.005494834288441911 0.000768590872286703 -0.008759048454586469  -144.4347491607774 -1083.27188265168 73.30336072099588  218.2606932611845 422.5668412611905 -12.10892711727763  -87.01725320308476 1138.431721644951 582.9913111248972  162.7535883054825 -807.1761490331621 530.317240647705  -106.0146190016048 118.0941421155582 -1178.10899229641  -224.4577407022043 215.0871190557771 0.9689224209701786  42.92766708191767 1287.634557032325 -506.2732913109477  151.6661323466764 -634.6530841970914 -792.682116039592  -117.9540037097905 -120.565075689393 1142.648223469366  113.1636758611212 958.0571206974773 921.4756337180196  -41.796203685451 -1093.180892253733 -1001.038488082951  37.40866884167248 -1578.976591468406 4.891524129325182  90.08248405016352 419.
[...]
<PointData  Vectors="Centrifugal"> 
<DataArray  type="Float64"  Name="Centrifugal"  NumberOfComponents="3" format="ascii">-9.5476547782492587e-11 -7.7937623603022055e-11 0.0000000000000000e+00  -1.3330343042604529e-10 7.8989148620352747e-10 0.0000000000000000e+00  3.3866775069452816e-06 1.0847238513513047e-09 0.0000000000000000e+00  6.4394910816834007e-06 1.3740410887975334e-09 0.0000000000000000e+00  8.8588506254915044e-06 8.9473848576766430e-11 0.0000000000000000e+00  1.0409676685062576e-05 -2.3257446042567357e-10 0.0000000000000000e+00  1.0944077171300234e-05 -5.2902323931833789e-10 0.0000000000000000e+00  1.0409583053528990e-05 -1.0947578437675689e-10 0.0000000000000000e+00  8.8586466661649578e-06 5.6204544752798577e-10 0.0000000000000000e+00  6.4396309972466092e-06 3.3631442719042959e-10 0.0000000000000000e+00  3.3867937627381125e-06 9.9857776163798073e-11 0.0000000000000000e+00  4.2915288605385787e-06 -2.0135438994851063e-05 0.0000000000000000e+00  4.2629519891476208e-06 1.5640926191023811e-05 0.0000000000000000e+00  1.0420965929500000e-05 -1.7962854614215924e-05 0.0000000000000000e+00  7.5087280520698916e-06 -1.9576253508322861e-05 0.0000000000000000e+00  9.4807301286031939e-06 1.8159295061385288e-05 0.0000000000000000e+00  9.4414075620613701e-06 1.8159110107458324e-05 0.0000000000000000e+00  4.7915842693162139e-06 1.8025068992131399e-05 0.0000000000000000e+00  1.6514446904441926e-06 -1.8015947836617579e-05 0.0000000000000000e+00  7.4594456767335451e-06 -1.8038747671314149e-05 0.0000000000000000e+00  5.1977250980948427e-06 -3.5375354079093830e-05 0.0000000000000000e+00  7.7192956575166797e-06 -3.4698849075005121e-05 0.0000000000000000e+00  5.2995737443681109e-06 -4.9577313779540718e-05 0.0000000000000000e+00  7.4630845402745979e-06 -4.6555150877830443e-05 0.0000000000000000e+00  4.6887719808907309e-06 -5.9028487979629569e-05 0.0000000000000000e+00  6.6716731022540396e-06 -5.2994979455231582e-05 0.0000000000000000e+00  3.5083645066077791e-06 -6.3057840411019154e-05 0.0000000000000000e+00  5.0851343758968941e-06 -5.4789116670453883e-05 0.0000000000000000e+00  1.8330872344999463e-06 -6.1372544364815114e-05 0.0000000000000000e+00  3.2538916458551564e-06 -5.0056927316857047e-05 0.0000000000000000e+00  -1.2655800083846933e-07 -5.3761025436170994e-05 0.0000000000000000e+00  7.7883832939877955e-06 -4.3066744034549274e-05 0.0000000000000000e+00  7.4594768957845152e-06 1.8038612883452491e-05 0.0000000000000000e+00  7.5630828138957253e-06 3.4925627387568840e-05 0.0000000000000000e+00  9.1551058865117758e-06 3.3487893069882877e-05 0.0000000000000000e+00  1.2166107527123748e-06 -3.9939700409070252e-05 0.0000000000000000e+00  4.4524629186822957e-06 -3.5034512270459583e-05 0.0000000000000000e+00  5.1969072106453415e-06 3.3356706886914648e-05 0.0000000000000000e+00  5.0117101913292265e-06 4.8806670221610605e-05 0.0000000000000000e+00  1.0440741529598548e-05 -1.7524489953070435e-05 0.0000000000000000e+00  9.2141468875653555e-06 -3.6201148411795455e-05 0.0000000000000000e+00  9.5015347544786550e-06 -1.8175720666688538e-05 0.0000000000000000e+00  1.6513476644592122e-06 1.8016816498953825e-05 0.0000000000000000e+00  7.3855603216360409e-06 1.7585509290331433e-05 0.0000000000000000e+00  7.5051924500419452e-06 3.4736576836744285e-05 0.0000000000000000e+00  2.2759157422793589e-06 -5.9541480629637656e-05 0.0000000000000000e+00  -1.5927218012146398e-06 -6.2101620075820423e-05 0.0000000000000000e+00  2.2181233371416441e-06 -3.6265237011728331e-05 0.0000000000000000e+00  9.0925144440084382e-06 3.3886685479694220e-05 0.0000000000000000e+00  6.8086412217956399e-06 4.8922998442439129e-05 0.0000000000000000e+00  4.8353040988736767e-06 4.7587665633969469e-05 0.0000000000000000e+00  3.8210095881532697e-06 5.9267176759729676e-05 0.0000000000000000e+00  1.6876195662258069e-06 5.5633263926774188e-05 0.0000000000000000e+00  4.9464268774811786e-07 6.4150486436593060e-05 0.0000000000000000e+00  -1.7304901687476733e-06 5.7242700551444348e-05 0.0000000000000000e+00  -2.8564009011128177e-06 6.3012066342538572e-05 0.0000000000000000e+00  -5.0297209878183315e-06 5.3824598674251427e-05 0.0000000000000000e+00  -5.4957956523522167e-07 6.6727504460646541e-05 0.0000000000000000e+00  -3.5066452921948688e-06 -5.1693667719405024e-05 0.0000000000000000e+00  -4.8450752632454771e-06 -5.7188060983916168e-05 0.0000000000000000e+00  -5.9059019543837480e-06 5.5950357133226114e-05 0.0000000000000000e+00  -7.7927186163796212e-06 4.3781672412581791e-05 0.0000000000000000e+00  -8.2998418261067207e-06 4.3692831321872806e-05 0.0000000000000000e+00  -9.7250730073409404e-06 2.8838574469467480e-05 0.0000000000000000e+00  -9.8575084020516460e-06 2.7374559392259469e-05 0.0000000000000000e+00  -8.6418009114749928e-06 2.7321293547168643e-05 0.0000000000000000e+00  -7.9803919024460843e-06 4.0424086670956461e-05 0.0000000000000000e+00  -1.0281984888134545e-05 1.1956624886392738e-05 0.0000000000000000e+00  -9.1070438155232678e-06 2.2496037073373450e-05 0.0000000000000000e+00  -8.7556229594990358e-06 7.6709741482243508e-06 0.0000000000000000e+00  -9.8293253869562507e-06 -8.6814511793470487e-06 0.0000000000000000e+00  -6.7815376577491845e-06 3.3883859826393435e-05 0.0000000000000000e+00  -1.5147789815650273e-06 -2.7667715939257146e-05 0.0000000000000000e+00  -6.6089037919104446e-06 -4.4235267563610888e-05 0.0000000000000000e+00  -7.8694951511243653e-06 -1.1751307631084287e-05 0.0000000000000000e+00  -8.5047453957324342e-06 -2.7591742318786237e-05 0.0000000000000000e+00  -1.0516897779443563e-05 7.5886736364368280e-06 0.0000000000000000e+00  -3.6685179144325222e-06 4.4557107908854995e-05 0.0000000000000000e+00  -7.4946924112337016e-06 1.4469672434999745e-05 0.0000000000000000e+00  2.3602807758860324e-06 4.5015636768198684e-05 0.0000000000000000e+00  -1.0137520903364911e-05 -2.2618533177011394e-05 0.0000000000000000e+00  -6.3774974435415298e-06 4.6920147286491823e-06 0.0000000000000000e+00  -4.9713927200061853e-06 2.5768753061517297e-05 0.0000000000000000e+00  -6.1321581993070503e-06 -2.9658774137363692e-05 0.0000000000000000e+00  -6.4249203961822747e-06 -4.4173569022335766e-05 0.0000000000000000e+00  -5.4173412786160655e-06 4.9734310457524213e-05 0.0000000000000000e+00  -2.7697812893569553e-06 -6.4530160103302558e-05 0.0000000000000000e+00  -5.2336892033875289e-06 4.3383701993023686e-06 0.0000000000000000e+00  -7.7294932609415355e-06 -6.2716096800505490e-06 0.0000000000000000e+00  -3.7097588195868649e-06 -4.4271755111976857e-05 0.0000000000000000e+00  -3.7252549854577847e-06 -5.6453589670541206e-05 0.0000000000000000e+00  -3.1944677923803920e-06 -2.8025350278942353e-05 0.0000000000000000e+00  5.5677814357088158e-06 5.7592901688262264e-05 0.0000000000000000e+00  -7.4798100265783487e-06 -4.7463870108236685e-05 0.0000000000000000e+00  -8.9963063890930313e-06 -3.2065644580177406e-05 0.0000000000000000e+00  1.9669947018134491e-06 5.7970645563097590e-05 0.0000000000000000e+00  -7.0987105364279562e-07 5.2273250504725456e-05 0.0000000000000000e+00  -2.4563097417583562e-07 3.9379516406339115e-05 0.0000000000000000e+00  -2.9693327211794135e-06 1.6638088974631545e-05 0.0000000000000000e+00  -4.9542588545973524e-06 -3.6155835170361520e-05 0.0000000000000000e+00  2.5876398116912400e-06 4.4009630946095885e-05 0.0000000000000000e+00  -6.1523625607153713e-06 -5.3414162529391049e-05 0.0000000000000000e+00  -8.1236210829325871e-07 3.3751419205506099e-05 0.0000000000000000e+00  -1.7990251168681938e-06 1.4470049760513058e-05 0.0000000000000000e+00  -1.2228223830183791e-06 6.2411830927439223e-05 0.0000000000000000e+00  -2.3159545586815732e-06 -1.0243549294327808e-05 0.0000000000000000e+00  -7.9367793232055561e-07 -5.4741503508574166e-05 0.0000000000000000e+00  -5.0033248059963489e-06 -1.6466117469643795e-05 0.0000000000000000e+00  -7.7120676982116335e-06 -2.6533069188856096e-05 0.0000000000000000e+00  -9.5931730487361017e-06 -1.2762262260380451e-05 0.0000000000000000e+00  -1.0494482561428050e-05 -1.6575115801521062e-05 0.0000000000000000e+00  -1.0896837939214279e-05 -2.1565368748129709e-06 0.0000000000000000e+00  -4.2113852842823114e-06 2.8686303659639201e-05 0.0000000000000000e+00  -6.3861101917595479e-06 3.1747369985493116e-05 0.0000000000000000e+00  -9.3455472709158375e-07 -6.2886015645288729e-05 0.0000000000000000e+00  -3.7338034091108890e-07 4.9351396551655915e-05 0.0000000000000000e+00  4.3798559822481967e-06 5.8758208640223414e-05 0.0000000000000000e+00  9.4385635671257584e-06 -1.7372610958542393e-05 0.0000000000000000e+00  5.4785276472775307e-07 -1.8905693174046645e-05 0.0000000000000000e+00  1.7373085267558885e-06 -6.5178157209422934e-05 0.0000000000000000e+00  -3.3414801733234595e-06 4.2670746949907718e-05 0.0000000000000000e+00  1.0465019259769603e-05 1.6840997526866445e-05 0.0000000000000000e+00  7.0099877707433020e-06 4.8481837718107013e-05 0.0000000000000000e+00  8.2652705947111072e-06 4.3957159996913673e-05 0.0000000000000000e+00  -8.3702259809696830e-06 -3.9753309352255045e-05 0.0000000000000000e+00  -3.6405998655643376e-06 6.2845526359267125e-05 0.0000000000000000e+00  -6.1022845387286868e-06 5.4216501937659409e-05 0.0000000000000000e+00  -5.9501954296327453e-07 -4.0829339113650699e-05 0.0000000000000000e+00  -2.5542550451339321e-06 -7.4511056136684907e-06 0.0000000000000000e+00  -5.3834189784245651e-06 -1.1963964937947175e-05 0.0000000000000000e+00  2.5390170468004812e-06 6.4931747642091200e-05 0.0000000000000000e+00  2.9771872654284979e-07 -6.6384445479526606e-05 0.0000000000000000e+00  6.0568687530778678e-06 -4.2231585595870429e-05 0.0000000000000000e+00  1.0483421008983793e-05 1.7056688407715941e-05 0.0000000000000000e+00  4.7943728307244428e-06 -1.7894063444110420e-05 0.0000000000000000e+00  -9.2682916925106980e-06 -3.5661816814057970e-05 0.0000000000000000e+00  -1.9642205105199735e-06 -4.4068385372748001e-05 0.0000000000000000e+00  5.3425710579219732e-06 3.2338259864311284e-05 0.0000000000000000e+00  -9.3807369904901775e-06 5.3327714876939542e-06 0.0000000000000000e+00  2.4644864355035097e-06 -4.9743884827341579e-05 0.0000000000000000e+00  2.6866723444200967e-06 3.2070982437412716e-05 0.0000000000000000e+00  1.5656444076937830e-06 6.4633370079926261e-05 0.0000000000000000e+00  -6.8215317787265752e-06 4.1910215560254004e-05 0.0000000000000000e+00  9.1631948124506478e-06 -3.2248498854618503e-05 0.0000000000000000e+00  -1.6776726302301666e-07 1.7366979836358920e-05 0.0000000000000000e+00  8.3012083312389947e-06 -3.1374611367048114e-05 0.0000000000000000e+00  -1.0628815999808594e-05 1.5953608279557459e-05 0.0000000000000000e+00  -5.6758962399683837e-06 -5.7229150716528230e-05 0.0000000000000000e+00  -3.4684426874678269e-06 -6.2442852196764853e-05 0.0000000000000000e+00  9.8270316256330334e-06 2.9563005971565735e-05 0.0000000000000000e+00  -2.4481805699409158e-06 3.2902824375034475e-05 0.0000000000000000e+00  3.0460575542901350e-06 2.9879835227611740e-05 0.0000000000000000e+00  -3.6952113760129113e-06 4.9073229942008457e-06 0.0000000000000000e+00  -4.0157060452614132e-06 5.8471971339757877e-05 0.0000000000000000e+00  9.3182273793792373e-06 -2.9994911692751239e-05 0.0000000000000000e+00  -7.4865122076970911e-07 -6.6329881838077191e-05 0.0000000000000000e+00  -7.0270879448095157e-06 1.7375839950966083e-05 0.0000000000000000e+00  -4.8039080023263862e-06 1.4757755297999398e-05 0.0000000000000000e+00  -3.0704047622926846e-06 5.3751400723723017e-05 0.0000000000000000e+00  -7.7134258292116838e-06 -4.7410189707917705e-05 0.0000000000000000e+00  -1.3197715358112961e-10 1.8481901759404412e-11 0.0000000000000000e+00  -3.4921462087107664e-06 -2.6189675467943361e-05 0.0000000000000000e+00  5.2771339967861007e-06 1.0216150842310895e-05 0.0000000000000000e+00  -2.1039031357587754e-06 2.7523276230750043e-05 0.0000000000000000e+00  3.9350656907496712e-06 -1.9514656218818339e-05 0.0000000000000000e+00  -2.5632304616034933e-06 2.8551064350020220e-06 0.0000000000000000e+00  -5.4269710489159737e-06 5.2000323997343129e-06 0.0000000000000000e+00  1.0379040718083044e-06 3.1130489358060789e-05 0.0000000000000000e+00  3.6669947416440179e-06 -1.5343666554034612e-05 0.0000000000000000e+00  -2.8519036570622088e-06 -2.9148407497264416e-06 0.0000000000000000e+00  2.7360739994908981e-06 2.3162468499105138e-05 0.0000000000000000e+00  -1.0105482873450457e-06 -2.6429311189953780e-05 0.0000000000000000e+00  9.0446279767140249e-07 -3.8174140754757693e-05 0.0000000000000000e+00  2.1780194414702043e-06 1.0136289014763789e-05 0.0000000000000000e+00  -8.6071302842640126e-07 -2.9722955717687181e-05 0.0000000000000000e+00  1.9093025256864120e-06 -3.6264946272150502e-06 0.0000000000000000e+00  -3.6959886425487494e-06 2.9087621330762405e-05 0.0000000000000000e+00  -5.4378442927644608e-06 -1.3895362558987840e-05 0.0000000000000000e+00  5.5364364304839094e-06 1.7444717793628441e-06 0.0000000000000000e+00  -7.3937589382128026e-07 1.8027874467459611e-05 0.0000000000000000e+00  1.1382988496875467e-06 4.0846956557658795e-05 0.0000000000000000e+00  4.6958633246239005e-06 2.4170397543641111e-05 0.0000000000000000e+00  4.6972688177479299e-06 3.3940531634412956e-05 0.0000000000000000e+00  -5.3917244443228666e-06 1.5360397735771136e-05 0.0000000000000000e+00  6.6254190177682123e-06 -1.2745430964486780e-05 0.0000000000000000e+00  -1.3240040960433109e-06 2.6849877531585547e-05 0.0000000000000000e+00  -6.3728878008671112e-06 -1.4121084400590601e-05 0.0000000000000000e+00  6.2289495013128767e-06 2.4184439326560369e-06 0.0000000000000000e+00  4.6182867242634323e-06 -3.3396637168296196e-05 0.0000000000000000e+00  -5.9299860981928001e-06 1.2328868059815363e-05 0.0000000000000000e+00  1.3714652061152684e-06 -1.3113239742700376e-05 0.0000000000000000e+00  -2.1398242614534312e-06 -4.1948684457515953e-05 0.0000000000000000e+00  -2.0743872710896717e-06 -4.4163956950395238e-05 0.0000000000000000e+00  2.4666680161799802e-06 -3.8938910912856746e-05 0.0000000000000000e+00  -5.3879119355749570e-06 3.3257828186874057e-05 0.0000000000000000e+00  2.0802222525718191e-06 -3.7930574833686792e-05 0.0000000000000000e+00  -1.4886847905880801e-06 4.4755192233225297e-05 0.0000000000000000e+00  -3.6017485612094912e-06 -1.6894101028464885e-05 0.0000000000000000e+00  6.2120476746621493e-06 2.1737242176704535e-05 0.0000000000000000e+00  7.8241131709093554e-07 2.0080847794997658e-05 0.0000000000000000e+00  2.3255776113762135e-06 1.0814318119406380e-05 0.0000000000000000e+00  </DataArray> 
</PointData> 
</Piece>
</UnstructuredGrid>
</VTKFile>