<?xml version="1.0"?>
<VTKFile type="UnstructuredGrid"  version="0.1"  >
<UnstructuredGrid>
<Piece  NumberOfPoints="201" NumberOfCells="657">
<Points>
<DataArray  type="Float64"  NumberOfComponents="3"  format="ascii">-41.75016720451001 -4.938656880496224 5659.104279777659  2.510746904176329 2.067804359427551 -5658.576034835747  2505.656887920598 0.6070062809127923 -5366.917138895728  4619.953842430654 -2.073841619785674 -4514.698714842499  6311.066685802182 -1.186950562739955 -3202.870262659509  7448.227476196766 1.167745214465182 -1621.831680186027  7817.199069015494 0.8912406004994454 87.4642732040631  7430.122973403769 -7.276451588433036 1794.569068662756  6414.824608524681 0.176140619404199 3344.673223023075  4711.841269357996 5.132832142895973 4558.476095657533  2420.505601300207 2.777204322775055 5369.29887141122  3230.743187800286 -117.6618705488378 -5013.956688368417  3148.090258577547 92.38568301066613 5113.489680789149  7603.389594041464 -122.4501012226485 -758.8296591102097  5630.417096870719 -113.9175098995093 3861.427157845451  6944.222618477437 118.5696983927023 2470.283415179773  6909.133244012718 116.7696904422345 -2328.617567887579  3564.151110714216 108.0315722511286 -4918.739403058119  1171.116440644135 -106.5610370374057 5490.879701071797  5432.1829986427 -110.296226732612 -3837.920981965958  4077.166304105678 -166.8542404938354 -4281.161279675927  6016.506482189816 -163.2195156865978 -2864.24671495858  4618.866668180678 -141.2618021715781 -3119.739772846146  6365.312280027159 -166.6418784251267 -1411.723484867081  4653.922221733024 -96.15258547065315 -1427.501148010975  6054.31027576084 -141.2169596240243 414.8295129357191  3687.827179321055 -75.08157022198108 762.7866361786115  4727.383267094673 -120.9592025542998 2476.51511985388  1825.304818805406 -81.60147284168464 2882.96308684924  2851.759375895933 -132.9387474943931 4075.622919335795  -139.2678576793953 -123.2242216550882 4265.805509123233  6423.154462675555 -172.9170203256679 1887.050369926516  5568.496166874545 110.3065283072476 3929.793165883056  5986.044914440193 164.4615164814405 3112.291896765211  7071.453739866527 171.3038475257129 1430.306621533908  912.9329913457009 -157.591582668035 5044.262197352238  3551.232294346426 -145.7558388126963 4610.099758099462  4076.683745067416 156.8001819284878 4424.036904636421  4386.781458501149 144.2733335003835 3475.123188143525  7604.608324590517 -121.9049072488799 909.1641982308149  7255.150528368451 -181.5947086771113 176.2989331931146  6971.214558217551 -119.391919190347 -2257.298156430637  1265.190161326343 103.0643802582464 -5492.384302497244  5373.184590175027 107.7045588400117 -3890.184537634538  5838.245515554014 166.9415380084146 -3031.626074838319  2254.083291975845 -89.43191855696121 -3115.157253467022  -1678.2860524588 -79.2385355937773 2731.699907713876  1818.724001529774 -146.6286154967306 -5065.104272292387  7074.733561717903 184.5876895533803 -1314.294895926542  5954.340881494002 154.4209761283555 -1804.343468462172  4152.755960767897 156.1602505924909 -3622.139353246671  3778.494048949185 94.64704753630556 -2291.366065018571  1586.852818856237 112.2288183370188 -3875.924102417283  506.6460262255068 67.99992000486441 -2329.499614020534  -1661.911803301787 100.3985310012438 -3690.641879188514  -2981.439988277854 74.68908749985964 -1746.762060070545  -4618.932790375338 124.7316924283765 -2748.480265595399  -627.0223773201635 49.64647156964826 170.1914976382446  -3162.696029093593 -135.5169150305917 3800.722252744946  -4622.534044639702 -112.9721489399382 1984.413979514879  -5547.141115659668 117.2925991558354 -807.394149394607  -6449.980069950645 170.425932751024 -1739.777956257317  -6832.483578994387 173.134414399736 56.78333245412766  -7330.078463166277 170.2145166437619 -1038.529962934535  -7357.486871476656 164.5423305314887 793.066434007005  -6525.207394248313 160.4536947044991 -2769.535249863421  -6421.994230372391 178.2218291513914 1981.936360221905  -7410.242216955594 85.41178212638754 -1736.633853324267  -6704.713598204139 142.8244446779121 2506.690118160574  -6310.406243027704 51.61113563839763 -3388.797419718862  -7071.181392581575 -59.35351866915458 -2436.783796721034  -5279.992139014079 158.059245136728 3622.79248479199  -1215.801587464988 -144.987778361972 5339.918831918836  -5497.410930022232 -161.3758584301687 2864.450148969653  -5711.134590690073 -78.99857116606215 -3877.3654323064  -6451.350720590306 -156.2176561886622 -2875.601724585301  -7476.287265841685 58.50523363463846 1349.091999184779  -3109.959057621759 149.1060106118628 -4393.934393100869  -5453.428849884853 84.61954824641107 3929.226545574927  1945.560069458326 150.2158368279212 4647.084517164874  -7471.213473804772 -140.1797948433363 -1070.501302816885  -4625.108466190548 31.73459389716983 -4621.883963726536  -3766.227330176406 140.4316229484386 4720.49313668234  -4713.022010413485 -155.9115614127282 -4226.843744523962  -5399.319064039791 -159.4877353701369 -3114.297486547821  -4733.537496363985 142.9859976598572 3044.922949275491  -3010.343885956525 -62.45283713774175 502.5244874089997  -3797.35301508264 30.78691996516505 4943.442233527865  -5566.510302742416 -44.09678668208578 3914.479995310904  -3129.857303969615 -150.886207651272 -4408.059538761089  -3531.949062923452 -114.1524646603479 -3080.465282229518  -2493.574062788135 -143.1859490684829 -5148.686414296961  5398.79295975102 106.3118410257883 -147.0990012814748  -6408.016994542865 -154.9335553215557 1101.028772472589  -6869.636998070703 -178.208019846857 1796.990821631457  1861.310168627278 102.9447132177534 3520.128685049004  -690.4893334417095 121.1999536351534 4386.875811254722  -243.5999182693504 158.0010556733064 5097.291755455166  -2254.627342511325 96.40010514424746 5331.075479005439  -3921.664850982867 -160.4560762809986 4367.829533946647  2198.30916225356 146.8390257560748 -4660.176359047611  -5607.466465863728 -128.8300041946992 -1605.106329825152  -644.0967009649926 151.6616950401649 -5257.636350270309  -1372.966345835028 81.4155987124079 -5521.034504553107  -1275.634508643529 77.32492219762997 2756.06255435903  -1771.055029638403 -65.62329113470547 5477.685502434238  -724.2279358688103 -117.6559294758046 -4133.073340011424  -3686.151335729032 -98.12017805747544 4902.245509963435  -5808.237352867444 -148.3659620298722 3413.746939261663  -6888.906518240304 -90.73617359397706 2453.532644111544  -7566.684857989968 -108.7381395061977 707.2392770932208  -7744.252674105081 -12.78769369186563 -575.748928550788  -3238.060151047208 141.5956607201369 -4921.600513758924  -4956.283048808374 157.7248388029053 -4028.856098417479  -983.2434652555788 -75.46493604400605 -2682.841281204092  -307.9604078249591 140.2999606387544 -4608.124275032832  4279.00179421623 103.3193018291169 2012.306041539935  6914.365786939741 -113.8009193185812 2563.630375398986  426.9352363747639 -100.6300036803411 -5547.163957251031  1904.50910204117 -57.14087596658267 -1309.530387179421  -2806.606600679719 157.7124973530445 4546.986442066423  7616.641016793443 120.46150564826 -774.7313773729321  6071.986982805842 149.773976736788 1776.507660561998  6862.552454248525 174.2391263107683 6.105951552013785  -6747.378513001147 -174.1250646330304 -1658.864662361106  -3798.567186572877 77.01442569293141 595.2274507916135  -5614.2770810702 124.163092318879 1271.055686278432  -502.5726890520325 -155.4430919000567 -5050.641337652709  -1918.174573318157 -46.57939848874835 -5496.807825685054  -3944.875462323895 -74.81240321381246 -4894.576377283383  2799.061292370411 62.44068177538298 -411.2967715145058  322.2153532758152 -51.22857676368342 1007.735062018234  5012.654273843919 -159.2459599155874 3507.320316558494  7614.428198744168 110.2326689078998 838.2292664867479  3569.199887917701 -95.31982693300519 4944.319689793883  -7222.74268697074 -178.5155833929679 57.25597628229757  -1696.557690067619 -158.1863954897801 4748.804541857058  4131.750275319729 164.5137106006247 -4359.293345181556  -6693.504344230288 38.63290050973598 2809.656234701549  2198.680043952967 -132.8820562620652 -4302.962541015461  2035.288028926022 148.5198689038924 5107.4013311074  1691.642165708945 62.72195084266668 1826.880893464899  -5626.0947094498 160.6844932885299 -3060.678426501179  7071.44719609381 -178.1698875815837 -1458.09385576887  -175.2729170924095 95.81808618386547 5564.317937419174  6405.148669762917 -164.4456138393233 2781.289829777514  -7677.274672288493 111.0914931984913 -214.2775644016692  -5422.242100677983 -113.5327279269226 7.255379194445149  -3604.74809411968 -78.57201860623444 -1381.147512389016  7457.980632820236 169.3713012083086 37.02430426128102  -1969.274195690637 155.8756871189681 5100.991793473082  2416.04714653041 144.6730777204557 -5102.303092575108  -2721.286983108362 28.19561088112389 -5344.494218482695  -3929.321382030262 102.0523144818058 2399.862200223679  7088.135135720298 -172.2415866726886 1695.751440008127  -856.4246049344705 -53.03875866838081 -911.2800893630637  -5184.611450950276 107.0022928332875 -4195.189802099245  -3546.61132707805 88.16849514266175 -5031.817502911099  -2839.778127054637 128.856611258906 3723.30884525429  -6545.552127274324 -167.453144005499 -451.3688475065528  -31.54277650845867 0.2278168052106482 -3.126777319883983  -3702.131358593384 -30.08854879108088 196.1944255423604  5208.226492120782 17.96260815539541 24.73135517695088  -2292.35892568408 30.75592841474308 1811.061089006555  4011.150782661308 -27.84745399602722 1611.324566600347  -2512.044667085 4.028452310031619 -3385.762561373105  -5295.572150494845 7.107092715953091 -52.75764078965326  1125.624521109739 30.42244696092475 -1657.644066477968  3707.758166711954 -22.65071543504943 -2282.614897156852  -2812.005158465498 -5.675891193167662 3243.993682699208  2756.645474681361 36.28174711025325 2751.876195367997  -1040.244079465936 -35.98749025514768 -3037.703237314367  1043.09132966785 -26.37069146822835 28.08584555145823  2094.475458802883 20.02640947332905 -3654.063887823433  -911.0742
[...]
<PointData  Vectors="Forcing"> 
<DataArray  type="Float64"  Name="Forcing"  NumberOfComponents="3" format="ascii">-2.4818370273390599e-06 3.4218558755020263e-05 1.4002148143106867e-04  2.2472338598407069e-07 -1.4039706488505814e-05 -1.2298706988448551e-04  5.6013935277650866e-05 4.4170998626138382e-06 -1.0765547771998680e-04  1.0430392817653640e-04 6.0723665402122189e-06 -9.4671104821703403e-05  1.3380590586555065e-04 -9.5749083195569947e-07 -5.7444092806812068e-05  1.5493672588226887e-04 -6.3169260763762204e-07 -2.6908833296155528e-05  1.6882848850765264e-04 -5.9862477192911315e-06 3.2393194490680220e-06  1.6354001791140662e-04 -4.2827267052899337e-06 3.7831595601894245e-05  1.3563596627406098e-04 6.0331061867092589e-07 6.3164187297697270e-05  1.0533761952821234e-04 3.3456526220689677e-07 9.4452822465087121e-05  5.2495702691337956e-05 1.0168446272444390e-05 1.0696416736548786e-04  7.5078716265755707e-05 4.2755373282159313e-05 -1.1101757371885468e-04  7.3033655791394973e-05 -2.1302876487227968e-05 1.1455030720078302e-04  1.6841735243927199e-04 5.4170617897932572e-05 -1.3379506687889352e-05  1.3254585876707313e-04 3.6535355531763265e-05 8.8846603541797725e-05  1.5834760426487732e-04 -4.1251184702805766e-05 5.5020021454430733e-05  1.5764808034201685e-04 -4.7815125566354110e-05 -4.8283396459356364e-05  8.0634982679710852e-05 -4.6417536280423030e-05 -1.0381639593660873e-04  2.7476675573314198e-05 3.3706840689106321e-05 1.2524491586359329e-04  1.2564514514455780e-04 4.3412148413730209e-05 -8.3850283676253893e-05  9.8884457098873628e-05 2.2889262396667231e-05 -1.0237920972114039e-04  1.4513556489466540e-04 3.5506420639883658e-05 -6.7547779361062959e-05  1.1199395386573816e-04 1.6727120369586170e-05 -7.4203196385836569e-05  1.5372070086697073e-04 2.4413831893894687e-05 -3.2889798144613270e-05  1.1384230307800181e-04 5.4031280501937702e-05 -3.4005131428047160e-05  1.4686412350212950e-04 3.0227656489927152e-05 1.0792650976155201e-05  8.9924642522071425e-05 5.4783715849918297e-05 1.9392940215880771e-05  1.1711472672861945e-04 6.7441832826124721e-05 6.1659153285015283e-05  4.3906464793314272e-05 1.7485703168517058e-05 7.0351520674262323e-05  6.8848649098788515e-05 6.2721048178476817e-05 1.0085179877593990e-04  -3.8701424085671801e-06 -4.3842717479011090e-06 1.0249266181495201e-04  1.5432751506001271e-04 -6.1192697147168838e-06 4.6481801777044040e-05  1.2941539536464160e-04 -4.0628253726110927e-05 8.8191708485278985e-05  1.4425752331486628e-04 -3.2054624371422669e-05 7.5199859377884538e-05  1.7001824014592097e-04 -4.2032000321480432e-05 3.5668651694785042e-05  2.1595933850876367e-05 1.8130365165578162e-05 1.2157512991312618e-04  8.5067541844083372e-05 3.7445895461011972e-05 1.1099653866322257e-04  9.7316749241512163e-05 -3.6453679133742310e-05 1.0579721333555857e-04  1.0545072583389916e-04 1.1621316639924001e-06 8.4311683315542210e-05  1.6919458867253528e-04 4.5476160888803192e-05 1.9775907192043620e-05  1.7564392771707524e-04 3.8839038442623886e-05 5.2484511238066401e-06  1.6155056173157141e-04 3.7429486692914381e-05 -4.8274787926157891e-05  2.9982039490805179e-05 -4.5495098987492157e-05 -1.1955846101376462e-04  1.2372742207811773e-04 -3.8577947938721069e-05 -8.4201316579449805e-05  1.3959408778779929e-04 -4.7309478591054764e-05 -7.0624572923915361e-05  5.5370474649863725e-05 4.8140825159987095e-05 -7.5748308488351977e-05  -4.1287994079849422e-05 8.6568043310069712e-05 6.9869672110952903e-05  4.4649406847877517e-05 4.0391392709602244e-05 -1.2228709735237660e-04  1.7040676962110177e-04 -3.0289562546936646e-05 -3.0288468011843613e-05  1.4409071940309153e-04 -2.7195171189486658e-05 -4.2971844530895350e-05  1.0056546722698969e-04 1.3507771994533198e-05 -8.5085362107442219e-05  9.2133341199581494e-05 -2.4888632506454543e-05 -5.4766782375338286e-05  3.8812725292947074e-05 -6.0195597397002350e-06 -9.3124072649846044e-05  1.2760632402216858e-05 -1.7599882140590066e-05 -5.5985208464241088e-05  -3.9353906669106730e-05 -1.4794343473288768e-05 -8.9273177889963486e-05  -7.2517239088729430e-05 -2.8729200378632265e-05 -4.3541819015156248e-05  -1.1163998892254667e-04 6.5280993046105967e-06 -6.7563670563797757e-05  -1.5161684601254808e-05 -2.5235088297048717e-05 4.0684215626338203e-06  -7.6954599268804673e-05 3.0983410648465486e-05 9.1849074685736227e-05  -1.1401444108536594e-04 8.2354884383026126e-05 4.8728385904452340e-05  -1.3481814902163028e-04 -3.4807199724403683e-05 -2.0598208729749127e-05  -1.5605468524401792e-04 -3.3288429380862799e-05 -4.3120341809563388e-05  -1.6504745720741001e-04 -1.5751201358924196e-05 2.7732752574694423e-07  -1.7578906946790092e-04 -3.5882281555243834e-05 -2.5722001236325484e-05  -1.7445937198201869e-04 -4.3923406307608109e-05 1.6857128034879260e-05  -1.5535881806714492e-04 -3.4306387654694471e-05 -6.6240936243119018e-05  -1.5581854169497938e-04 -3.3996954154473887e-05 4.6599201189876274e-05  -1.6113822428083101e-04 -3.7085939099809799e-05 -3.4968778528498004e-05  -1.5577335314474619e-04 -4.8881435094209781e-05 5.5504043714109063e-05  -1.3655928520365346e-04 -1.6861891978601027e-05 -6.6889275368744696e-05  -1.5168137489536562e-04 2.5569434525156876e-05 -4.9241843020671281e-05  -1.2809240065451500e-04 -4.4589089533529350e-05 8.5973463070369510e-05  -3.0036221813593468e-05 2.2900640289815997e-05 1.2782344296790164e-04  -1.3277554513185542e-04 2.0006344598954507e-06 6.7515351409808878e-05  -1.2784151196640028e-04 3.2614202503610651e-05 -8.1612498866700137e-05  -1.5307095676156461e-04 3.7381427533766121e-05 -6.7952832019493154e-05  -1.6351384461416049e-04 -1.9124990775854092e-05 2.5820541493369360e-05  -7.1671628473047582e-05 1.1330151404930619e-04 -1.0270999120878842e-04  -1.2207549844447639e-04 -4.6937790928006663e-05 7.9751970007765167e-05  4.6852727827483169e-05 -3.6066470525759702e-05 1.1336738974519133e-04  -1.7293362634360852e-04 4.2998412025242399e-05 -2.5481185480763749e-05  -1.0306341851105215e-04 -1.4640853522273073e-06 -9.7699252840339066e-05  -9.0161636627047228e-05 -2.4720703219096202e-05 1.0997971130981624e-04  -1.1235483565098194e-04 4.3309178256816834e-05 -1.0155567368237663e-04  -1.3002137057133934e-04 1.5214794565252847e-05 -7.6032754198768250e-05  -1.1494669569784535e-04 -2.5799650446579456e-05 7.2655308588244504e-05  -7.3219336742546802e-05 3.9578014681588417e-05 1.1578861682201906e-05  -8.6808387803041659e-05 6.2301740434575368e-06 1.0524019894236649e-04  -1.2540253269872618e-04 1.4418852202925369e-05 8.0826083275640291e-05  -7.5012424393164077e-05 1.7367454465161181e-05 -1.0694864623614651e-04  -8.6042748614406739e-05 9.0950533940846250e-06 -7.5772231883989663e-05  -5.9489422881768352e-05 4.5123845613990927e-05 -1.2138284944599953e-04  1.3143483799425148e-04 -4.7563196668772500e-05 -2.2100184647736325e-06  -1.5492830900071792e-04 2.7127802301531251e-05 2.5764633890422875e-05  -1.6700954149182566e-04 3.2239719493217074e-05 4.2228457198613776e-05  4.4797387046501333e-05 -1.2693525912132271e-05 8.5152866020519390e-05  -1.7136642785994875e-05 -2.7387029410195579e-05 1.0569664029073060e-04  -6.2649648988779400e-06 -2.7338372184378506e-05 1.2292431489135860e-04  -5.3468255338448563e-05 3.6379028820601957e-06 1.2044897578118758e-04  -9.5098807712170534e-05 1.9012935656677821e-05 1.0453917353887020e-04  5.3790952561313768e-05 -3.0937501196010928e-05 -1.1200116525768755e-04  -1.3545387689329534e-04 2.7027642096603007e-05 -4.0129838506957974e-05  -1.5163272245707310e-05 -6.6432567362252967e-05 -1.2470645001507529e-04  -3.1861073404624032e-05 -2.6997635161908037e-05 -1.2412000638199611e-04  -3.1521629398031359e-05 -2.1426540829967475e-05 6.6419437867329677e-05  -4.2887114322545142e-05 -1.7348150865537426e-05 1.3412332906516343e-04  -1.7067735694821765e-05 1.6616158753384240e-05 -9.9985910736230096e-05  -8.3203126714972075e-05 5.2567676741244742e-05 1.0384462639810148e-04  -1.3703464965868740e-04 4.3551710448706799e-05 7.7070907538875707e-05  -1.5039804533739361e-04 4.0812758664348698e-05 4.6953341297140373e-05  -1.6610931008260226e-04 5.2490558025349643e-05 1.2931110984970856e-05  -1.7256899281122958e-04 1.2518038339889089e-05 -1.3820421336826231e-05  -7.7324996163734286e-05 -4.1668733054306237e-05 -1.1819867230617801e-04  -1.1881179268011259e-04 -3.7231701334846911e-05 -9.6658465737865288e-05  -2.3402574354201021e-05 5.2508062241322887e-05 -6.5984830259985922e-05  -6.9621493192316454e-06 -5.3312529129705106e-05 -1.1382723959775806e-04  1.0327506129114856e-04 -8.2086227880284372e-06 4.9373062217722127e-05  1.5779974004079671e-04 3.6592369486771187e-05 5.7289402866805237e-05  1.0682818514973140e-05 4.0211889708034878e-05 -1.2315140825342396e-04  4.6373321984728212e-05 2.4238415653539610e-05 -3.1499908299953559e-05  -6.8066080062533163e-05 -1.0600035516380817e-05 1.0887902545214229e-04  1.7093996947990545e-04 -3.6619445617396217e-05 -1.4316581303569957e-05  1.4764020997126595e-04 -4.9846629676598376e-05 4.4600053655700867e-05  1.6563193263470814e-04 -1.6094825495417200e-05 1.5626823604438394e-06  -1.6287256016653083e-04 3.6717752128527985e-05 -4.1527727617807305e-05  -9.2195764002292238e-05 -1.1528651923836277e-05 1.3887371348873107e-05  -1.3700156331688970e-04 -4.9098173062040111e-05 2.9926477789881194e-05  -1.1587915540497289e-05 2.1875094314559634e-05 -1.2150217980525824e-04  -4.4188103417876867e-05 2.6164165695489588e-05 -1.1898376842945586e-04  -8.7724899490147028e-05 4.1404565726480695e-05 -1.0108065912793496e-04  6.8104951057910618e-05 -3.9144154312232361e-05 -9.4747930188182450e-06  7.8305166310339208e-06 4.7521143093302515e-05 2.4726746481004157e-05  1.2090386684951622e-04 3.0939534102956588e-05 8.5226786539211434e-05  1.6921512510581247e-04 -4.6201431658667503e-05 1.8509018602556895e-05  8.1186943604968039e-05 3.9502704295769920e-05 1.0704508062093804e-04  -1.7384362104463368e-04 3.0690396435321608e-05 1.8157769284898542e-07  -4.1524304800953754e-05 1.8042068863345647e-05 1.1443073552456142e-04  9.9698419117963283e-05 -4.2020633185156285e-05 -1.0335573106652599e-04  -1.4621421222578760e-04 -9.2932313474172761e-06 5.4341892212547252e-05  5.3962612069258154e-05 1.7881606583045522e-05 -1.0366602022869247e-04  4.8272504994633670e-05 -3.4593521821414108e-05 1.2019794543829466e-04  4.0647918551701226e-05 -2.5003034382582994e-05 4.4557952683768632e-05  -1.3657065738976031e-04 -5.4134231302411402e-05 -7.5731395285919188e-05  1.7018280752340899e-04 4.5845468079557521e-05 -3.3328242619644261e-05  -5.1804492430300947e-06 -1.3425632506204485e-05 1.3028105536769973e-04  1.5296809698402085e-04 4.5077263052662974e-05 6.6591975081216047e-05  -1.7068498953683484e-04 -3.9510980446207219e-05 -6.4311115364846482e-06  -1.3080148197783316e-04 2.1109605791753709e-05 -8.0424070763388540e-07  -8.6998378673333693e-05 3.0424108614517142e-05 -3.4501656242468482e-05  1.7804021985511959e-04 -4.4047740429470463e-05 2.3526938870844266e-06  -4.7619426975456056e-05 -2.8293715787007311e-05 1.2038348126623123e-04  5.8734264388552044e-05 -4.6904205484640591e-05 -1.2164661089474387e-04  -5.9897273088612161e-05 -1.3088011447135277e-05 -1.1125711620150303e-04  -9.5296506529300522e-05 -3.0468753975476030e-06 5.7042543120956317e-05  1.6843353622932218e-04 3.8835228635746346e-05 4.0519083709407281e-05  -2.0797253849541947e-05 3.7196969184960762e-05 -2.2361387257166281e-05  -1.1788935480721842e-04 -5.1315697725560263e-05 -9.1074725622226790e-05  -7.9834038262513148e-05 -4.2830954567048678e-05 -1.0672690573829973e-04  -6.9604921359991848e-05 -5.1981147800335429e-05 9.0477218250500186e-05  -1.5409865687904652e-04 -6.3154294812747117e-05 -1.1645228443372859e-05  -1.0127647206543882e-06 6.5190390987075901e-06 -1.9036586972225454e-07  -8.9080813030556231e-05 1.8899602152792001e-05 3.9818645939715592e-06  1.2039650147484666e-04 -1.4982286060553825e-05 1.2909237323581013e-06  -5.5605671572006339e-05 -1.9727615616054084e-05 4.3088139361957390e-05  9.6117541142417526e-05 2.3598604214689417e-05 3.9140880749686692e-05  -5.8620365161832105e-05 -6.4703731764773175e-06 -7.6809133153149913e-05  -1.2265179025557361e-04 -1.0865752689504110e-05 -2.5833712144938766e-06  2.7636770985205435e-05 -2.7978032198494060e-05 -3.9810583636705473e-05  8.8417771392714859e-05 1.8891524122462281e-05 -5.2906215410158445e-05  -6.5845969201574117e-05 2.8916038578200879e-06 7.3261497267686394e-05  6.5397642677127740e-05 -2.8378927807746232e-05 6.5726920628097574e-05  -2.4581603573161503e-05 2.1025152944626581e-05 -7.3133350796814847e-05  2.5356545522012836e-05 2.3868452649929602e-05 8.5133301074823174e-07  4.8443129899671718e-05 -2.4835035654515973e-05 -7.8811476196120230e-05  -2.2297006981617880e-05 2.0442871286506788e-05 7.2501302870599791e-05  4.0790566020364077e-05 9.3453026003033600e-06 8.7933751727458859e-05  -9.1213518993929832e-05 -2.0811376574494472e-05 -3.8315829848094709e-05  -1.1823344511377761e-04 2.3937174584119281e-05 -4.8759011171695424e-05  1.1320623319771128e-04 2.4486189029325383e-06 5.4079369413544271e-05  -1.8109776123523450e-05 -1.6915207287616416e-05 9.6203779150447706e-05  3.0549769822061622e-05 -2.8221859739284355e-05 3.1723163718509643e-05  1.0853059055446090e-04 -3.7028583680939727e-05 -5.0272704324473584e-05  1.1460450352133120e-04 -2.5129565583587400e-05 7.6229566760443359e-06  -1.1374975304491218e-04 -3.5037835793053097e-05 4.9524014393427912e-05  1.3713812371841756e-04 3.6686409222320554e-05 -5.3434998639332624e-06  -2.9715912392378073e-05 -2.8436367657562693e-05 -8.8844118691979820e-05  -1.3073109078836921e-04 3.4231887861612002e-05 3.0978604685189494e-05  1.2273505451077489e-04 -1.0717760864781533e-05 -4.1722061723706907e-05  1.1366243358431633e-04 3.6595861038412463e-05 -1.3123298696373480e-05  -1.2016976157853538e-04 -3.3631744454599702e-05 -5.2454361448460561e-05  2.8913315565613414e-05 2.3410407503421260e-05 -9.5377693359631610e-05  -5.6408697136495157e-05 2.6310048114152376e-05 -3.5384096784677073e-05  -5.5704604415073215e-05 3.2790509380248501e-05 3.1741437604922073e-05  6.0929312271344354e-05 2.7407509986281853e-05 6.1249201344838299e-05  -1.2593040258205245e-04 -3.9145017343208133e-05 2.1368974668416359e-05  5.2413414125622583e-05 3.2281555790280116e-05 -6.1133432413077471e-05  -4.0462301466319193e-05 -2.6348108187665148e-05 -1.6597963397637450e-05  -7.4306158250426763e-05 3.5403147331251758e-05 -8.6085594512732690e-05  1.3181409331787988e-04 -4.7322324508214901e-05 4.2809092571313933e-05  2.1464514445693554e-05 -5.9914506863895498e-06 1.7283490387589108e-05  6.1229462627127571e-05 -8.0418253746111848e-06 -3.3120394453791653e-05  </DataArray> 
</PointData> 
</Piece>
</UnstructuredGrid>
</VTKFile>