<?xml version="1.0"?>
<VTKFile type="UnstructuredGrid"  version="0.1"  >
<UnstructuredGrid>
<Piece  NumberOfPoints="201" NumberOfCells="657">
<Points>
<DataArray  type="Float64"  NumberOfComponents="3"  format="ascii">0.05393906761255846 -0.0448893037844311 1702.754543086179  -0.005927301138290482 0.007981004168074861 -1702.754651058535  546.4033259789998 0.006341940775686202 -1619.398758971338  1039.267476818208 -0.0456309613949387 -1377.619081221918  1430.4418899896 -0.007079819736600413 -1000.805377441605  1681.672041199027 -0.009064671203723694 -526.1766817595781  1768.298909787321 0.01515822707297889 0.09605244061955433  1681.708677015181 -0.02964778504145725 526.2769481278617  1430.552806301906 0.003062820555070941 1000.885687294256  1039.394484754295 0.01268967172586566 1377.542505199658  546.3832482531182 0.02115156078380658 1619.367923645324  692.6057208656731 -86.49281807413107 -1481.118331411232  688.0078648542424 67.21044159760079 1517.679398282974  1683.803375599739 -77.06483529072288 -252.511306613275  1212.571755723211 -84.00965356870216 1135.909878933963  1531.542286886799 77.93535925587966 716.3409503413475  1525.163844926868 77.93496020491949 -728.7003364437606  773.2683081647643 77.42462499822197 -1461.500369321018  266.46719409261 -77.44033005336233 1620.009412261296  1204.474011889023 -77.42908473768173 -1159.812205798914  839.4148081712874 -151.1938464360625 -1200.02863465551  1247.23184947599 -148.2076108658555 -826.4581592198047  856.7383860999137 -210.3662498106475 -795.1039117082943  1206.728536695594 -197.8229358736203 -391.3801138527363  758.6618475564514 -248.8396666280092 -333.068405476706  1079.182532881154 -224.3302390279107 84.21529218435766  567.8016354275815 -265.0954051547108 152.1008275286817  822.4777392565054 -231.7110861545745 576.3413820442782  296.5612390314125 -258.3460619773951 613.4756616597734  525.9113067680148 -212.3961596577959 1011.809571318445  -20.39497356382886 -227.595142780395 1014.365080593824  1259.177558170132 -183.3221899524144 485.6753199890886  1204.583903170645 77.45055241152589 1159.847352178575  1222.037905099991 149.2093941798725 854.85564617621  1479.635322197715 143.1044839096016 386.8776089822  196.3849070343689 -170.4117247098409 1354.424893913174  719.1846966161459 -149.7026389101478 1276.493859100017  839.2240498584237 142.6494639498988 1236.930735796506  810.2138945172306 207.1842349940685 867.9174013851053  1687.065020828074 -75.18899469325731 252.4958152819616  1489.592940799152 -154.5125174401179 29.30000907866121  1535.011418383353 -78.0149097320331 -709.1940602353782  266.5122269279464 77.4065435250083 -1620.048667348276  1192.427104884727 75.47476656798776 -1175.693943300709  1212.523461690831 148.4306768772066 -871.9156737459351  368.1736133048744 -250.9706255200556 -690.6924316831929  -257.7269387920502 -261.2810337728926 580.8241146780333  358.2221597204543 -154.9101427838119 -1390.203956292916  1469.618176526441 144.796913148889 -399.7569275254067  1100.964351650197 207.6011846244984 -481.9613783778436  781.5508507433511 202.1954953008705 -933.5280414409597  618.1738689118843 249.8431828364508 -520.406838524059  272.9018267747842 235.1916985493439 -909.3686385322889  79.98898781210339 269.5098139973783 -472.6438687063323  -279.8926955991791 241.6315287137389 -839.6942913436318  -462.2906279025556 264.9458619190772 -356.4056294256571  -813.4567001867223 227.7652413222707 -643.3082289957983  -88.94926125932538 279.7089609945651 31.62275937645659  -566.8691130969848 -219.1161586695027 935.038716705856  -783.7173087699032 -241.4976944900211 463.2652379831503  -955.4366137750941 236.4167164684615 -173.889746218831  -1259.770334242138 186.2919902130992 -440.6117180231596  -1341.875268269077 185.9284571229214 39.39957633698601  -1571.667257221388 123.4233671335284 -275.031192058541  -1592.982172181802 117.1917570150511 256.537991321567  -1396.054537121935 117.0536792028202 -783.053184139193  -1289.890090627519 172.3244552782146 552.8225048625632  -1661.12667320023 51.33805111164781 -499.0829261585905  -1471.103248902822 96.48595129920507 753.6950183210611  -1413.765233629306 32.96052853208623 -1004.08386900124  -1587.616594449279 -37.31272894655943 -716.6672496643829  -1095.453324256354 144.830035420892 1023.939358740382  -244.5098261490977 -118.598567202596 1533.210731863933  -1068.286665196329 -188.1832821904825 762.047111871359  -1270.574456243306 -50.50601981680563 -1146.277784915954  -1373.941168767162 -118.171233415846 -812.6885032159278  -1699.01509487312 32.62613687843918 430.6306265017712  -592.8187727047801 189.6082492179737 -1136.897761143621  -1210.011613633259 62.12888578525413 1186.314078293553  381.3492379774406 191.5878062255598 1206.682603273388  -1638.085855131952 -96.92155946884928 -288.8457604170234  -1029.310387444662 20.20481833167883 -1379.59549947834  -802.5743268530589 110.4613686445654 1369.353291643771  -990.2664393702338 -127.0065913643871 -1193.585022333644  -1038.56796544477 -187.93536401786 -801.4179440909218  -875.8119173448401 210.9937857994923 769.1236431604226  -448.3460766257288 -270.9551571701525 110.112820476825  -844.4960115236806 18.68419098266018 1492.050757146781  -1247.928211498046 -26.98271896626193 1195.87771095412  -599.4680033703044 -188.3930701232586 -1140.921874361448  -602.5073866346768 -238.5274743524623 -707.6849878014552  -515.826365525447 -120.1038428841265 -1465.354737099085  900.8640287760782 242.986237686866 -48.25005898948839  -1209.583977816371 -201.5075069628697 302.6927443300538  -1453.751612449047 -137.1615583012986 528.8794866368222  318.1898118204163 244.6803878419074 793.2756977454188  -114.7946956143067 221.3818794118929 1058.301007909834  -39.69025653884282 168.1034561304753 1377.418162597497  -479.2360745201049 71.4813467441429 1583.742804683266  -800.2194615495329 -154.4462533269676 1209.876808858467  418.0505366616467 187.303922577183 -1219.503912899358  -995.1438479120736 -226.0129663744023 -372.9831495023915  -131.2016867704648 144.359355512336 -1465.914952915946  -290.4218830906013 62.16557109998327 -1639.076366966444  -197.8504863239982 262.5402301469301 580.7964895420998  -373.7486415333187 -44.07063549863585 1643.878135796801  -128.3285755196762 -231.5741415969569 -971.9968795603594  -807.4463238471149 -70.7348652222001 1456.23923971061  -1245.648084945044 -113.6714851203117 1004.26037238213  -1549.475510988019 -54.83861928619463 754.0060608257193  -1695.591333557007 -71.11281773825671 238.9969513492341  -1760.593016401807 -9.256374365368432 -147.9134078315463  -679.9192486352853 122.8752037160261 -1393.374265826291  -1031.504978157345 135.8377710402675 -1124.688217001731  -151.2482679357252 -264.4696141303908 -559.8140341027695  -60.34951936263833 209.5518214293802 -1149.618029460705  708.617034662422 247.8425283194747 446.5190962096638  1524.670857910467 -74.55918946998726 742.1958524566136  88.43057113206818 -81.18780388454914 -1631.553979886947  281.2098750267727 -273.5793042055405 -263.6003168723918  -539.7888346065877 181.7848070513436 1206.049706863517  1690.944623504149 72.28242030477509 -257.8932366646402  1133.562967047183 205.7544281722577 439.275858022219  1336.407229073301 187.0145741591412 -19.46470655005236  -1353.02103141616 -169.4566096942812 -431.4146573057727  -589.2199193032449 264.2816160491116 133.1977599193046  -987.0030992736505 229.29845062852 312.6325666035336  -96.22175187422187 -174.1446947155639 -1347.202492712683  -412.2851550241256 -32.05037509635329 -1645.099038694612  -868.8339710065159 -51.43389462642917 -1451.815174575387  411.0074839896091 272.5962984970854 -87.43454774755502  48.15991251673127 -278.3872507195396 190.2615998248316  978.8416530755793 -179.8961245544837 928.3690958571863  1693.957319869431 73.15842491798961 228.9407058521784  773.7792586719877 -76.84001112827016 1462.28691977188  -1498.166250500963 -152.2700077403719 42.11630724894108  -317.3621353125549 -187.6660558578211 1245.846643569037  862.6873549521921 138.3819240396688 -1239.399522366111  -1514.95887397534 22.92474615356203 867.6095004431827  398.3305010297648 -211.0759195272756 -1073.805498222092  433.6570908862724 137.2450656249092 1436.035900509867  253.4316220593887 271.4008258848762 359.7147481415316  -1102.516200621922 178.484363610701 -800.9623115978853  1480.929227745343 -137.8890665507437 -445.5312290552172  -27.07326556654283 74.56764295763809 1644.528496153164  1341.261461476999 -134.1746995578818 774.1988093574965  -1717.372653160066 68.45172699067945 -38.69559750208801  -918.3152261413801 -241.6230481479815 16.47791109083771  -561.3374641949181 -262.6547277658723 -283.494037427841  1588.262279721782 126.4652700526825 -11.83251737097194  -395.2898506506629 140.8247722047411 1434.157159157261  491.7953780376097 127.9801452115897 -1449.221277094968  -596.2646105674154 21.09880538426565 -1598.329391758917  -649.7057195910215 246.6740022862305 543.3153482320785  1505.833410621424 -128.3425080917269 468.8281672909999  -121.223527004414 -278.1978082684419 -171.9003044686412  -1134.501494971096 74.63102916413854 -1229.802110279272  -775.2873360780943 63.43422988860415 -1484.086622924971  -496.4922905432996 227.5901708326563 895.7113568903376  -1247.215633749721 -201.4169118448924 -95.51588941950097  -0.0414383909836949 0.001572514660378785 0.02754021024915936  -567.3324858761268 -109.8888817316229 47.44213425412389  857.1907927800704 43.00140856142285 -7.816495857295529  -341.8317914010868 115.4346325172652 377.2753385931306  639.1892740485937 -82.0270815998155 343.0747646758261  -416.2526446454203 12.03749576537917 -761.8312246683462  -881.5617023932324 21.89593811145253 0.6388267732220987  168.5984794626043 130.4622386150994 -327.6869999880539  595.5781530565347 -64.56166096523141 -512.6964989002082  -463.1642316304597 -12.28628545551675 738.9058232551549  444.2687679183037 97.41661956215765 596.0017569775935  -164.1094243108213 -111.0772068596841 -647.5599210484464  146.9263901775235 -159.7537707597627 3.191618119872637  353.5106728824654 42.723
[...]
<PointData  Vectors="Centrifugal"> 
<DataArray  type="Float64"  Name="Centrifugal"  NumberOfComponents="3" format="ascii">1.2955891707036820e-09 0.0000000000000000e+00 4.1166230963424288e-05  -1.4197924750877827e-10 0.0000000000000000e+00 -4.1166233651484030e-05  1.3209778571821177e-05 0.0000000000000000e+00 -3.9151002545405034e-05  2.5125209730171748e-05 0.0000000000000000e+00 -3.3305662587375307e-05  3.4582194465773320e-05 0.0000000000000000e+00 -2.4195735155859746e-05  4.0655890884544463e-05 0.0000000000000000e+00 -1.2720983040901999e-05  4.2750157799340688e-05 0.0000000000000000e+00 2.3067268647753691e-09  4.0656770930382790e-05 0.0000000000000000e+00 1.2723390746683641e-05  3.4584857686324923e-05 0.0000000000000000e+00 2.4197663610412134e-05  2.5128259409363104e-05 0.0000000000000000e+00 3.3303823394027232e-05  1.3209296561555398e-05 0.0000000000000000e+00 3.9150262079345377e-05  1.6744291599608596e-05 0.0000000000000000e+00 -3.5807779021123093e-05  1.6633148626456342e-05 0.0000000000000000e+00 3.6691725027946695e-05  4.0707301227240798e-05 0.0000000000000000e+00 -6.1047635625834263e-06  2.9314857862102187e-05 0.0000000000000000e+00 2.7461960137408520e-05  3.7026261409197004e-05 0.0000000000000000e+00 1.7318383333950183e-05  3.6872059426091694e-05 0.0000000000000000e+00 -1.7617207992309740e-05  1.8694390978030358e-05 0.0000000000000000e+00 -3.5333511625443619e-05  6.4420587767022709e-06 0.0000000000000000e+00 3.9165668777769521e-05  2.9119127614009224e-05 0.0000000000000000e+00 -2.8039847593588510e-05  2.0293366837382147e-05 0.0000000000000000e+00 -2.9011897988167499e-05  3.0152590511653951e-05 0.0000000000000000e+00 -1.9980463661066676e-05  2.0711926710922117e-05 0.0000000000000000e+00 -1.9222233268274854e-05  2.9173118523922735e-05 0.0000000000000000e+00 -9.4619370776480976e-06  1.8340697891388302e-05 0.0000000000000000e+00 -8.0521028014498091e-06  2.6089478260373572e-05 0.0000000000000000e+00 2.0359547728741786e-06  1.3726577086922686e-05 0.0000000000000000e+00 3.6771019136163782e-06  1.9883540851562422e-05 0.0000000000000000e+00 1.3933408132429334e-05  7.1693729080069227e-06 0.0000000000000000e+00 1.4831053484795856e-05  1.2714067049981580e-05 0.0000000000000000e+00 2.4461247062825200e-05  -4.9306127876073027e-07 0.0000000000000000e+00 2.4522930723521341e-05  3.0441182515937038e-05 0.0000000000000000e+00 1.1741613786904811e-05  2.9121766042530507e-05 0.0000000000000000e+00 2.8040691630178235e-05  2.9543488693007321e-05 0.0000000000000000e+00 2.0666990269456308e-05  3.5771105500271104e-05 0.0000000000000000e+00 9.3531590551490074e-06  4.7477206688769200e-06 0.0000000000000000e+00 3.2744481608420377e-05  1.7386706920566372e-05 0.0000000000000000e+00 3.0860518988799567e-05  2.0288771132265837e-05 0.0000000000000000e+00 2.9904077817386846e-05  1.9587182846817952e-05 0.0000000000000000e+00 2.0982554899219862e-05  4.0786148219235143e-05 0.0000000000000000e+00 6.1043859861450291e-06  3.6011760240854358e-05 0.0000000000000000e+00 7.0835283279694711e-07  3.7110118442068079e-05 0.0000000000000000e+00 -1.7145617501766103e-05  6.4431403238734663e-06 0.0000000000000000e+00 -3.9166611641863653e-05  2.8827893092349823e-05 0.0000000000000000e+00 -2.8423808977380024e-05  2.9313497720318555e-05 0.0000000000000000e+00 -2.1079449108112708e-05  8.9006201092283075e-06 0.0000000000000000e+00 -1.6697844471305349e-05  -6.2305408449283306e-06 0.0000000000000000e+00 1.4041678636518763e-05  8.6602213207318356e-06 0.0000000000000000e+00 -3.3609545396921212e-05  3.5528919872708044e-05 0.0000000000000000e+00 -9.6645382587743296e-06  2.6616168477205027e-05 0.0000000000000000e+00 -1.1651788952620095e-05  1.8894274542120096e-05 0.0000000000000000e+00 -2.2568774043206455e-05  1.4944392474279682e-05 0.0000000000000000e+00 -1.2581108289309157e-05  6.5974515466460322e-06 0.0000000000000000e+00 -2.1984546537753319e-05  1.9337321345029547e-06 0.0000000000000000e+00 -1.1426347157917365e-05  -6.7664350903586076e-06 0.0000000000000000e+00 -2.0300084322968311e-05  -1.1175851930682242e-05 0.0000000000000000e+00 -8.6162513955301782e-06  -1.9665480560918772e-05 0.0000000000000000e+00 -1.5552386251851527e-05  -2.1503381305144379e-06 0.0000000000000000e+00 7.6448294548407077e-07  -1.3704212321582458e-05 0.0000000000000000e+00 2.2605213650644666e-05  -1.8946460819862878e-05 0.0000000000000000e+00 1.1199701616154771e-05  -2.3097820500598185e-05 0.0000000000000000e+00 -4.2038881950409974e-06  -3.0455508217714029e-05 0.0000000000000000e+00 -1.0652160091333149e-05  -3.2440436695918218e-05 0.0000000000000000e+00 9.5252296366316979e-07  -3.7996147067714621e-05 0.0000000000000000e+00 -6.6491730933052024e-06  -3.8511486260285737e-05 0.0000000000000000e+00 6.2020935484944480e-06  -3.3750617001233525e-05 0.0000000000000000e+00 -1.8931166108053235e-05  -3.1183753266135539e-05 0.0000000000000000e+00 1.3364988933755826e-05  -4.0159144953198187e-05 0.0000000000000000e+00 -1.2065923069386442e-05  -3.5565055946733631e-05 0.0000000000000000e+00 1.8221438092061336e-05  -3.4179006396838963e-05 0.0000000000000000e+00 -2.4274959103144918e-05  -3.8382006898502229e-05 0.0000000000000000e+00 -1.7326309154754188e-05  -2.6483259125880381e-05 0.0000000000000000e+00 2.4754769973299672e-05  -5.9111954326763886e-06 0.0000000000000000e+00 3.7067067004380677e-05  -2.5826288843778421e-05 0.0000000000000000e+00 1.8423127789338257e-05  -3.0717218787263166e-05 0.0000000000000000e+00 -2.7712652412192153e-05  -3.3215998103035313e-05 0.0000000000000000e+00 -1.9647632834886727e-05  -4.1075168130745527e-05 0.0000000000000000e+00 1.0411021095773534e-05  -1.4331637046289976e-05 0.0000000000000000e+00 -2.7485454816596994e-05  -2.9253036665665969e-05 0.0000000000000000e+00 2.8680579682396136e-05  9.2192787352683235e-06 0.0000000000000000e+00 2.9172569286916745e-05  -3.9601981430738432e-05 0.0000000000000000e+00 -6.9831684850954820e-06  -2.4884469798931807e-05 0.0000000000000000e+00 -3.3353420425430998e-05  -1.9402825577024422e-05 0.0000000000000000e+00 3.3105643081095396e-05  -2.3940361957307166e-05 0.0000000000000000e+00 -2.8856190008594656e-05  -2.5107816017087041e-05 0.0000000000000000e+00 -1.9374951998401756e-05  -2.1173033146865310e-05 0.0000000000000000e+00 1.8594136429796434e-05  -1.0838720577715677e-05 0.0000000000000000e+00 2.6620260397919214e-06  -2.0416430507560088e-05 0.0000000000000000e+00 3.6072178847757557e-05  -3.0169740999882349e-05 0.0000000000000000e+00 2.8911831655769887e-05  -1.4492390034237876e-05 0.0000000000000000e+00 -2.7582740877931376e-05  -1.4565698380365908e-05 0.0000000000000000e+00 -1.7108703093907879e-05  -1.2470436271772578e-05 0.0000000000000000e+00 -3.5426550202984311e-05  2.1778475053569450e-05 0.0000000000000000e+00 -1.1664713970137356e-06  -2.9242121524909231e-05 0.0000000000000000e+00 7.3178415547575484e-06  -3.5145393620890266e-05 0.0000000000000000e+00 1.2786211522321222e-05  7.6922694671338112e-06 0.0000000000000000e+00 1.9177875863879541e-05  -2.7751836736066239e-06 0.0000000000000000e+00 2.5585139396691950e-05  -9.5953202988109735e-07 0.0000000000000000e+00 3.3300386136342271e-05  -1.1585912488247705e-05 0.0000000000000000e+00 3.8288893357665814e-05  -1.9345780644986566e-05 0.0000000000000000e+00 2.9249958897001133e-05  1.0106558162572749e-05 0.0000000000000000e+00 -2.9482547348209186e-05  -2.4057818842440299e-05 0.0000000000000000e+00 -9.0171152533755234e-06  -3.1718730915890703e-06 0.0000000000000000e+00 -3.5440005767747865e-05  -7.0211589127038749e-06 0.0000000000000000e+00 -3.9626661849378434e-05  -4.7830306879146734e-06 0.0000000000000000e+00 1.4041000785702224e-05  -9.0356738884006304e-06 0.0000000000000000e+00 3.9742790799856100e-05  -3.1023661392887305e-06 0.0000000000000000e+00 -2.3498636788117907e-05  -1.9520682128095229e-05 0.0000000000000000e+00 3.5206322912267443e-05  -3.0114434673863950e-05 0.0000000000000000e+00 2.4279115446737638e-05  -3.7459886409430308e-05 0.0000000000000000e+00 1.8229007140217821e-05  -4.0992322405357792e-05 0.0000000000000000e+00 5.7780392192925885e-06  -4.2563877662028298e-05 0.0000000000000000e+00 -3.5759919091962812e-06  -1.6437513745689628e-05 0.0000000000000000e+00 -3.3686318720374260e-05  -2.4937295611960626e-05 0.0000000000000000e+00 -2.7190500806360688e-05  -3.6564166188265692e-06 0.0000000000000000e+00 -1.3533741387913252e-05  -1.4589701980262144e-06 0.0000000000000000e+00 -2.7792881932382410e-05  1.7130867772346883e-05 0.0000000000000000e+00 1.0794834179007652e-05  3.6860138250249481e-05 0.0000000000000000e+00 1.7943446370425036e-05  2.1378739888142367e-06 0.0000000000000000e+00 -3.9444755139101942e-05  6.7982170568222738e-06 0.0000000000000000e+00 -6.3726332009007847e-06  -1.3049649886096899e-05 0.0000000000000000e+00 2.9157307917191350e-05  4.0879955657660733e-05 0.0000000000000000e+00 -6.2348784839052540e-06  2.7404258537758873e-05 0.0000000000000000e+00 1.0619827167877022e-05  3.2308221333997289e-05 0.0000000000000000e+00 -4.7058311648786392e-07  -3.2709982102979305e-05 0.0000000000000000e+00 -1.0429841512566555e-05  -1.4244360900403842e-05 0.0000000000000000e+00 3.2201107830132223e-06  -2.3860997760227496e-05 0.0000000000000000e+00 7.5580847605687906e-06  -2.3261929266398345e-06 0.0000000000000000e+00 -3.2569855793136402e-05  -9.9673141028003724e-06 0.0000000000000000e+00 -3.9772311629417107e-05  -2.1004790132975579e-05 0.0000000000000000e+00 -3.5099395972259448e-05  9.9360580603163418e-06 0.0000000000000000e+00 -2.1137621722017950e-06  1.1642606019348804e-06 0.0000000000000000e+00 4.5996313495059363e-06  2.3663959341582923e-05 0.0000000000000000e+00 2.2444153886137933e-05  4.0952786573228660e-05 0.0000000000000000e+00 5.5349082089058605e-06  1.8706731345328194e-05 0.0000000000000000e+00 3.5352533364337278e-05  -3.6219059565178351e-05 0.0000000000000000e+00 1.0182027871807444e-06  -7.6723683014905919e-06 0.0000000000000000e+00 3.0119418856095123e-05  2.0856033480210471e-05 0.0000000000000000e+00 -2.9963776479803521e-05  -3.6625458877035507e-05 0.0000000000000000e+00 2.0975532960894928e-05  9.6297651897519649e-06 0.0000000000000000e+00 -2.5960048019798155e-05  1.0483951915674631e-05 0.0000000000000000e+00 3.4717678917235574e-05  6.1266823410425629e-06 0.0000000000000000e+00 8.6962315893759208e-06  -2.6653844221550537e-05 0.0000000000000000e+00 -1.9363972329451106e-05  3.5802410496271002e-05 0.0000000000000000e+00 -1.0771189849312800e-05  -6.5451740566693783e-07 0.0000000000000000e+00 3.9758451461570047e-05  3.2425867197060732e-05 0.0000000000000000e+00 1.8717064407432699e-05  -4.1518893195877075e-05 0.0000000000000000e+00 -9.3551976631856793e-07  -2.2200371781146014e-05 0.0000000000000000e+00 3.9836504268440098e-07  -1.3570308789405658e-05 0.0000000000000000e+00 -6.8535949606689835e-06  3.8397314112824366e-05 0.0000000000000000e+00 -2.8606848160968798e-07  -9.5563781592920474e-06 0.0000000000000000e+00 3.4672243843892123e-05  1.1889474093924869e-05 0.0000000000000000e+00 -3.5036479867590923e-05  -1.4415196070921977e-05 0.0000000000000000e+00 -3.8641597677527754e-05  -1.5706682611961115e-05 0.0000000000000000e+00 1.3134929268382646e-05  3.6404536224884691e-05 0.0000000000000000e+00 1.1334416413656754e-05  -2.9305577634441296e-06 0.0000000000000000e+00 -4.1557451716441638e-06  -2.7427483703637138e-05 0.0000000000000000e+00 -2.9731916790793063e-05  -1.8743204065894279e-05 0.0000000000000000e+00 -3.5879571071583386e-05  -1.2002806100769634e-05 0.0000000000000000e+00 2.1654408678642817e-05  -3.0151904758108314e-05 0.0000000000000000e+00 -2.3091715993221709e-06  -9.9508831822175223e-10 0.0000000000000000e+00 6.6146590577187413e-10  -1.3715195121881544e-05 0.0000000000000000e+00 1.1469289467481924e-06  2.0722596886202735e-05 0.0000000000000000e+00 -1.8896852888613631e-07  -8.2637304981176000e-06 0.0000000000000000e+00 9.1207598617465638e-06  1.5452365557889041e-05 0.0000000000000000e+00 8.2939751292552343e-06  -1.0062913060567911e-05 0.0000000000000000e+00 -1.8417643777315778e-05  -2.1311775068447712e-05 0.0000000000000000e+00 1.5442717539210239e-08  4.0758435565871675e-06 0.0000000000000000e+00 -7.9219307054483966e-06  1.4398088882048512e-05 0.0000000000000000e+00 -1.2394668133300637e-05  -1.1197002994389170e-05 0.0000000000000000e+00 1.7863410531724336e-05  1.0740183651207466e-05 0.0000000000000000e+00 1.4408600258820376e-05  -3.9673314589859858e-06 0.0000000000000000e+00 -1.5655017807503358e-05  3.5519107051212638e-06 0.0000000000000000e+00 7.7154633814365676e-08  8.5461452988048761e-06 0.0000000000000000e+00 -2.0499986172424261e-05  -3.3782994232020869e-06 0.0000000000000000e+00 1.5557141204735916e-05  7.4919069144984404e-06 0.0000000000000000e+00 2.1891483646021975e-05  -1.4508287733723890e-05 0.0000000000000000e+00 -7.7472151020965118e-06  -2.1334335526764527e-05 0.0000000000000000e+00 -1.1527642970924319e-05  2.1716958928141584e-05 0.0000000000000000e+00 1.4706064338692259e-05  -2.8991414015991217e-06 0.0000000000000000e+00 2.3221609913599470e-05  4.4676019296331596e-06 0.0000000000000000e+00 5.9371677755960149e-06  1.8420067265514712e-05 0.0000000000000000e+00 -1.2467255352293851e-05  1.8428039563833814e-05 0.0000000000000000e+00 1.1431876386468252e-06  -2.1145893301689447e-05 0.0000000000000000e+00 1.3976009356949763e-05  2.5989195803453287e-05 0.0000000000000000e+00 -2.2099143704391642e-06  -5.1916216305362865e-06 0.0000000000000000e+00 -2.0571563398151852e-05  -2.4992633698418939e-05 0.0000000000000000e+00 8.9735408044931154e-06  2.4424081487691271e-05 0.0000000000000000e+00 -1.3573560421307026e-05  1.8119544233731026e-05 0.0000000000000000e+00 -3.4316310984811222e-06  -2.3251600517428713e-05 0.0000000000000000e+00 -1.3883591571358706e-05  5.3752983553918494e-06 0.0000000000000000e+00 -2.4983291795370348e-05  -8.3965960529672259e-06 0.0000000000000000e+00 -6.9267085289949026e-06  -8.1378424410892649e-06 0.0000000000000000e+00 6.4528541709223165e-06  9.6735536907158576e-06 0.0000000000000000e+00 1.2735948903437199e-05  -2.1127330389220542e-05 0.0000000000000000e+00 5.2945509099038839e-06  8.1589715064031944e-06 0.0000000000000000e+00 -1.3101700169023517e-05  -5.8406092381800795e-06 0.0000000000000000e+00 -3.0876596965312794e-06  -1.4115272883894332e-05 0.0000000000000000e+00 -2.3140055048110159e-05  2.4355270696919388e-05 0.0000000000000000e+00 1.0475031360690905e-05  3.0767481323385745e-06 0.0000000000000000e+00 3.3194246760549348e-06  9.1423759202450261e-06 0.0000000000000000e+00 -7.3011319172682959e-06  </DataArray> 
</PointData> 
</Piece>
</UnstructuredGrid>
</VTKFile>