<?xml version="1.0"?>
<VTKFile type="UnstructuredGrid"  version="0.1"  >
<UnstructuredGrid>
<Piece  NumberOfPoints="201" NumberOfCells="657">
<Points>
<DataArray  type="Float64"  NumberOfComponents="3"  format="ascii">-0.2524151138043572 8.371959687853082 2253.502057961672  -0.5279361692276292 5.795405386149221 -2252.249945738811  120.3886718285638 7.782377274541203 -2137.53896619103  223.3089366536997 7.179872201007749 -1809.970401864443  295.900383492481 -13.96823863925806 -1306.476711690577  336.6742053852548 -28.98751784267158 -684.3045515824913  353.4571953768639 -28.99485393641467 -0.1328909912261484  336.4495329701376 -6.091874891440011 683.7527840637529  294.8336810686885 6.849298348411458 1300.270619481514  222.038047356284 7.21512971909512 1803.439335872917  119.4043039808591 8.100361088315132 2135.362407868207  157.6651069734181 -2707.367397253711 -2034.793564365474  159.0416403757079 2118.448091646503 2045.1332381294  359.8881876519487 -2747.666769922796 -341.4525307932648  273.3636034864374 -2766.65421991688 1558.451449510377  337.5383162882846 2699.720791186742 966.2711310938074  338.1188495457022 2709.966415571653 -987.7370283184447  182.558958384847 2459.430167291367 -1991.889759463563  58.90014820865387 -2380.030420725518 2215.356032254528  267.6665734644397 -2570.92293143443 -1571.260958130173  214.0529330518907 -4590.60671111129 -1778.193932166571  312.6012500443379 -4704.775297542265 -1217.518667574822  251.383470759366 -6126.661969896847 -1291.560220194427  342.4311117876477 -6019.497878550355 -625.5236425618727  248.1054482403196 -7025.668155824213 -578.6486297097213  331.8334606781509 -6608.139506052908 140.0853276596467  194.2413064866134 -7332.033833362504 269.927359275324  258.3466498634081 -6639.228344853309 970.5705604705743  94.21110094353698 -7093.447893511195 1077.798309270336  155.8302622557509 -6049.733265985772 1643.547552257927  -16.28331830064357 -6339.71852273755 1686.745737710157  339.9793293279192 -5687.418811121152 756.65663913727  272.6936882609209 2564.417610047944 1569.743634876975  324.2669006155214 4718.439096127734 1267.024618418305  379.284805461042 4713.743542501272 566.8766385043228  48.32496047905923 -4967.237118248758 2052.551511367042  181.0024498053805 -4512.251668978814 1885.47069746951  226.0937763356939 4362.27998113651 1815.294048550173  253.4336333752599 6017.460303799862 1402.89033993763  358.9202620872645 -2675.229626633486 341.7737718417147  369.5125351357292 -5046.152179525465 43.57791741616012  332.2405726906818 -2709.608397383629 -962.1455888204331  65.95856590341805 2391.230351751761 -2211.76455069072  272.0281769545664 2509.40600387274 -1592.698923259331  320.2781359783771 4684.094878218649 -1291.891540274176  115.9240963444345 -6934.391314819393 -1198.266136531692  -100.6807815096584 -7156.617004057735 1026.109395405921  89.70500038779657 -4558.092325681416 -2070.912160433391  377.3604180623464 4762.816306222786 -589.882096530952  340.8183671311603 6186.362087843429 -783.994971003906  241.1000335027557 5881.584150743798 -1499.135441394669  220.0513200443397 6973.224021744549 -904.5608859848054  96.84910541870913 6534.18709753342 -1534.842409625587  39.14082660862415 7321.004344459572 -847.773457645868  -84.85887093785476 6690.100829217221 -1432.728958337286  -154.5294105354349 7277.393043233528 -636.1608722149953  -251.1016856343719 6526.959864696642 -1079.091943186717  -23.64744081226146 7563.804711141041 56.5036201065324  -188.2262749669896 -6228.415740954704 1536.008972615432  -272.8082202621371 -6857.159921426705 793.6564267827861  -304.5643731558546 6818.804864746501 -298.3627149511497  -348.4916653538245 5755.607700528042 -693.628580223601  -371.9349711725019 5801.989683829291 60.63275613664631  -364.9623160838952 4184.846898359176 -391.0416761814781  -365.5797722476327 4002.003230462525 362.074239210231  -326.4157155355562 3879.758952305451 -1111.102019406159  -342.9049592522655 5396.110440655982 848.0583264223706  -338.2702710673206 1853.556847318179 -660.8198062174754  -329.1154507321843 3297.890746592762 1038.600715799363  -294.2054610625226 1145.54818268559 -1314.71011487371  -332.2313378828088 -1322.469019430119 -943.3191042181022  -277.3150420440544 4527.998370691667 1509.277143286194  -67.13534623484766 -3555.674112473536 2184.820209319291  -311.7649864649858 -5689.131045811657 1192.29572808821  -277.4526470964145 -1704.359539952524 -1522.905093684557  -334.9530404461941 -3900.25763975507 -1153.39209711732  -342.0995792262564 1168.81559915305 559.2597057512852  -163.4339001677403 5499.843345262831 -1786.365851758658  -262.5081872374304 2063.984773407849 1586.096586860524  120.1153688639104 5495.627900903964 1898.978994372527  -372.4096854945139 -3384.409533060986 -398.4352048954855  -221.9481033076881 671.3566124980662 -1814.488779805916  -187.8391231157997 3465.65895824445 1921.1134172885  -253.5359243893437 -3973.722096315153 -1715.873068475934  -303.7513523201933 -5656.274227715392 -1255.705691993804  -258.3467085153052 6153.822786986184 1253.326218793235  -172.3977305467213 -7434.824261643616 197.0666822904722  -184.7897648606482 609.0620798166485 1966.990938644231  -266.4099503834049 -915.7054341071241 1567.719433462659  -180.457958665361 -5471.664483043573 -1783.601307075478  -208.684984400304 -6707.088163692616 -1203.850484210955  -134.2975502480789 -3640.512604109767 -2089.43243056392  310.4503027127891 6946.110257900154 -84.16157202970972  -363.4531871130333 -6138.619567816452 488.0182826676448  -365.2528367801164 -4504.196820700042 769.3714705938035  114.3175907680169 6772.211123347056 1362.376649052157  -28.04626049596552 6192.722191967348 1743.470596420051  -2.585370502505299 4879.168419395162 2094.734313481799  -106.4402557315741 2226.531631294048 2145.173031811076  -215.464703100929 -4672.883485240901 1797.646858876628  128.3206224639001 5404.329156287936 -1907.138742268391  -322.9780443248994 -6614.623298910662 -625.8459550606194  -28.0377293933231 4251.053506651873 -2156.140313370121  -64.84315448511585 1934.950979381679 -2209.367249264892  -61.15144532922985 7172.768416150379 1029.068160776507  -86.98351562922772 -1400.103615479244 2188.152167679474  -50.78660804675418 -6441.0174617567 -1627.053482575162  -190.0803035640156 -2251.355018794609 1976.594422335844  -302.8827239656156 -3685.744030601386 1420.760869219675  -331.9131159738383 -1943.697274647582 1002.708683942815  -365.1922043917984 -2556.704365833949 325.2264511973584  -352.2487065951018 -366.0130707109814 -191.7127544666715  -164.4178868079159 3761.795161021725 -1991.401005794701  -253.9661552791131 4235.772113574128 -1635.478126421198  -62.95166611011543 -7219.852059639259 -994.572126553618  -9.779780664795553 5903.591522483434 -1860.10594549797  248.4466675094986 6962.995504005124 774.1464711596138  331.0129888215671 -2584.462061979166 1006.154540624393  17.59452547065875 -2482.145889935251 -2235.080045790312  93.76489425982737 -7459.404571044698 -477.1688212995393  -147.2658721604972 5289.93193029213 1870.93825969598  364.997710939572 2590.034129459573 -345.0074576089452  348.564751887447 6165.101707727026 712.2548012932257  387.6902068246421 5828.509698570045 -30.69461501279991  -371.3276393170549 -5352.065657542112 -656.534440349821  -199.8943166820285 7307.409213732732 237.1389606196977  -308.7548755772621 6658.770951499047 526.3831623552578  -33.66795131849602 -5026.084040708591 -2060.613682641395  -94.45214861264527 -1009.952160276787 -2185.980585701726  -196.3205973516182 -1655.272972344048 -1937.515434175957  158.754813627758 7450.241993635876 -160.3191221886991  9.029782101940111 -7544.901387924927 345.441360883803  262.7286335737059 -5428.083141645451 1431.11026792485  365.1477819357103 2617.355230200149 304.7690211116018  176.8885603654648 -2424.947111791456 1997.446736436935  -388.0104929953165 -4995.467070720134 63.15898176245197  -97.97012421754224 -5407.931325088815 1938.696963013433  228.8574855319312 4234.024253700089 -1809.593695139765  -311.5418139664677 812.8234413700859 1129.480341991097  113.2288182050137 -5979.65798301348 -1738.464544419497  120.1885545502086 4113.089137351262 2091.51854763456  100.2422702271019 7384.04082466484 646.9118156224121  -299.4102765210399 5440.615302386912 -1241.535061291915  356.4904341841487 -4547.579966274028 -647.9971836120731  -3.321631304355397 2298.964175951458 2233.121833737959  323.8372891949242 -4355.84012093726 1119.726230130803  -359.9984820373324 2469.562206426842 -53.48858348777919  -315.0981896916002 -6937.078706296545 27.45990506986029  -208.681344803451 -7274.330767030286 -504.3423597504102  386.6613345638549 4284.937609892057 -17.76286011787363  -96.67881187867502 4205.909580179681 2097.868518353949  132.6595745440193 3852.69104367495 -2087.587849654462  -133.0769180391288 683.8585530843485 -2111.807136883697  -209.9270769074402 6911.006206793392 939.2453439677726  355.988756799923 -4280.264402314175 672.0661803585414  -53.7722541000459 -7545.922509398687 -313.2751328079509  -252.7111338549832 2452.902074954711 -1668.033983313435  -173.5799920649691 2023.730395464939 -1999.933614384203  -149.8032878489033 6404.550402142039 1493.959812427465  -375.5971017467484 -6138.480800788498 -155.163831082606  -1.459246619773954 -18.93054703170385 -1.399850150739506  -136.3223361257211 -3870.603743795133 68.92621989298681  175.3947500801173 1623.326593947909 -16.10921005666704  -73.29926684660174 4029.748019273296 531.8356341876977  134.5333814106047 -2961.783024529504 464.6141537145961  -83.95880396072593 417.3234638586285 -987.0157018944005  -172.1241253939935 833.5927568935323 -1.120361950980487  47.32542835970114 4470.16179137496 -473.0140202333429  123.0038328963839 -2351.999153566864 -686.6150050373631  -94.21285900878668 -456.5695871712924 958.7399966413769  104.319224669581 3425.46262931833 822.4517134990527  -43.89726912285282 -3828.940822517524 -908.5927576219276  29.96824479894484 -5287.94573134101 5.277565888440249  75.67033732557071 1539.510449609395 -1110.664230643577  -39.42812883
[...]
<PointData  Vectors="Velocity"> 
<DataArray  type="Float64"  Name="Velocity"  NumberOfComponents="3" format="ascii">8.7162620094358040e-09 6.1139627006803352e-06 -3.5290536643485868e-04  -1.3883440584997297e-07 -3.4712263544636752e-06 3.5343195456841777e-04  -2.0045727825942278e-05 -3.1002728977616707e-06 3.3533601985113695e-04  -3.7346331421088914e-05 -4.6027819366065119e-06 2.8269081753799644e-04  -5.0671476256264328e-05 -1.6270080088698984e-05 2.0369439521863397e-04  -5.8498675699477132e-05 -2.6521685300397561e-05 1.0580102678026972e-04  -5.9988337858500551e-05 -2.3712408471736943e-05 9.5626024515152819e-08  -5.8174480927955136e-05 -7.4468318744467690e-06 -1.0638204909538711e-04  -5.0521598528455638e-05 4.0502695956336188e-07 -2.0598674509458202e-04  -3.7993140485504781e-05 2.9718577933106362e-06 -2.8538218855505692e-04  -2.0630089187612537e-05 5.3491487829843754e-06 -3.3632287064407665e-04  -2.5893027105225112e-05 -7.9100782847592495e-04 2.7366282414525642e-04  -2.0894369113767383e-05 6.2282028692391264e-04 -2.9819435150971511e-04  -5.4138976615871848e-05 -8.0859536353430797e-04 4.6235740842266284e-05  -4.0502624528291142e-05 -8.0591265638288228e-04 -2.0342733849492846e-04  -4.4688602475808002e-05 7.9433159239658991e-04 -1.3325989962680116e-04  -4.3548917521951567e-05 8.0284153584368181e-04 1.3276453443986482e-04  -2.2255000879679673e-05 7.2875692648538635e-04 2.7735293548622475e-04  -1.2097236926230918e-05 -7.0134816451625616e-04 -3.0494967243301042e-04  -4.0648437525518759e-05 -7.6017913904399327e-04 2.1678927355400982e-04  -2.5477613978470279e-05 -1.2053800618831948e-03 1.7376661144905732e-04  -3.4566370756301712e-05 -1.2395119102608574e-03 1.1859634118520678e-04  -1.7618676208834651e-05 -1.4318416078581313e-03 7.7190736706977538e-05  -2.3602493442489308e-05 -1.4407352135801614e-03 3.9808085257817756e-05  -9.0340465837790911e-06 -1.5174546965024082e-03 2.0225218110425175e-05  -1.4906416001140598e-05 -1.4996178101550658e-03 -6.9136951057968428e-06  -5.6083412033233292e-06 -1.5315891858475224e-03 -7.9571091393941624e-06  -1.2182874337109601e-05 -1.4875500566298059e-03 -4.4656195139756520e-05  -7.7141308199925791e-06 -1.5064159787960541e-03 -3.5644998466153635e-05  -1.2458850209711219e-05 -1.4158476255384290e-03 -1.0053165672999996e-04  -7.3022589215873690e-06 -1.4395441234103998e-03 -8.9664868146237475e-05  -2.8800840008605722e-05 -1.4076641809320153e-03 -5.5041678150889194e-05  -3.5820073999038348e-05 7.5393108960974335e-04 -2.1953924522553144e-04  -2.0692479005255153e-05 1.2460503721648281e-03 -1.1961531498939949e-04  -2.6746092661019345e-05 1.2582368125255243e-03 -5.4763989978408580e-05  -1.0047160624559173e-05 -1.2681020489372467e-03 -1.8522856469530688e-04  -2.3371733323441136e-05 -1.1884922730882436e-03 -1.8790670859863802e-04  -1.3997000003001888e-05 1.1691331948968180e-03 -1.8565309401821691e-04  -2.9566083823077774e-06 1.4160779438172157e-03 -8.5256910874866769e-05  -5.4789677536063515e-05 -7.8730633998783778e-04 -4.4376988738469994e-05  -3.9384717089177630e-05 -1.3138984362737515e-03 -3.2392657042213451e-06  -4.9920785228035327e-05 -7.9968570801404524e-04 1.2906248535900350e-04  -5.6242225947204166e-06 7.0736335321007178e-04 3.1084697645367458e-04  -3.4877001549787606e-05 7.4716958588638628e-04 2.2089172589973989e-04  -2.1355271094223219e-05 1.2373165404920422e-03 1.2203180399598484e-04  -8.7001364870984107e-06 -1.4941571084695863e-03 4.5275408524922545e-05  -7.5286526765675979e-06 -1.5105984088126215e-03 -3.2079748116209236e-05  -1.4118925225161232e-05 -1.1902459821814748e-03 2.0180879245427106e-04  -2.6268908550748822e-05 1.2703030713269350e-03 5.4470522250756332e-05  -5.0450168566393787e-06 1.4524554786458897e-03 4.3845706583038340e-05  -4.1379181704093264e-06 1.4023176250234377e-03 9.5505372602395404e-05  5.8887591028225100e-06 1.5016602003659547e-03 3.1370498882422785e-05  4.8310359731622135e-06 1.4576921621272765e-03 7.1283756259354932e-05  7.6450419498076164e-06 1.5158258120121549e-03 2.1560195529467726e-05  8.5555189945472559e-06 1.4713745288836126e-03 6.0740510535902621e-05  7.0697318342960612e-06 1.5195315286243374e-03 1.7031395373770829e-05  1.3296290696681466e-05 1.4734880929034456e-03 5.0132793728983317e-05  6.8798773851826876e-06 1.5318337019327680e-03 -1.3055570112436859e-06  -1.9618452336038190e-06 -1.4375809289288101e-03 -8.7028688282654389e-05  -5.0810607828702965e-06 -1.5050868308169813e-03 -3.1830576183397664e-05  1.1340577619667313e-05 1.5068198614240555e-03 1.1178269584702100e-05  2.5861422635583579e-05 1.4142699095481062e-03 4.6453448019949892e-05  2.5756449895182535e-05 1.4223858720001992e-03 -4.7820617572096792e-06  4.5830613824974959e-05 1.1578131983563176e-03 4.2601371336389773e-05  4.7125102096065889e-05 1.1171349010822011e-03 -4.1395356251596297e-05  4.2450757638964988e-05 1.0822684828952329e-03 1.2538149261374614e-04  2.9775492045323382e-05 1.3612853185017734e-03 -6.6393912322504123e-05  5.8607061246989092e-05 5.6635483848078169e-04 9.5833368639024487e-05  4.7569993712462940e-05 9.5555016447439135e-04 -1.3200611420799549e-04  5.1146614555740012e-05 3.4675332313730889e-04 2.0321977535414670e-04  5.0731395385154907e-05 -4.0594914522378603e-04 1.4079335205446970e-04  3.0791944466792145e-05 1.2067998506932066e-03 -1.4831329080362393e-04  1.9712013717344054e-06 -9.8481234793509139e-04 -2.5635027002962997e-04  1.0758339989993298e-05 -1.3945253728505917e-03 -8.6908354901953151e-05  3.9926540407038173e-05 -5.1780268529071820e-04 2.2474506477836910e-04  3.0951636030818063e-05 -1.0832112370510150e-03 1.3081459052746735e-04  5.9332048679324915e-05 3.4930416405784661e-04 -8.7628065370401971e-05  1.6789489637149051e-05 1.3465109885411645e-03 1.3142000568189079e-04  4.3587273016739060e-05 6.1177057312664150e-04 -2.3172386387794561e-04  8.2560226152484494e-07 1.3408109799943955e-03 -1.3937228366983604e-04  4.1742279711771189e-05 -9.6879110930630943e-04 5.0189009566418353e-05  3.7700737348822714e-05 2.0149393614677131e-04 2.8339274421450934e-04  2.8672556490871429e-05 9.8554597973843317e-04 -2.3918904148010606e-04  2.0556268413092880e-05 -1.0882915579596799e-03 1.8963744266074829e-04  1.0415500401562610e-05 -1.3821104791080301e-03 9.1459291724748883e-05  1.6766628742611826e-05 1.4380065360137713e-03 -7.1537991861294570e-05  -9.0046745951618060e-06 -1.5362131041654200e-03 -5.3452497758038299e-06  3.1096926336985988e-05 1.8618661508204012e-04 -3.0722200884047312e-04  4.1940985202874707e-05 -2.8674265467513251e-04 -2.4242901392660239e-04  3.8354828788606557e-06 -1.3389171139593151e-03 1.3611804016303714e-04  -3.9890500787061197e-06 -1.4821152078205618e-03 5.2885548504266108e-05  9.6997815710854216e-06 -1.0102229218432594e-03 2.4443071955016133e-04  4.6605981060714206e-06 1.5140772794319493e-03 2.7618214384843690e-06  8.4711591378827818e-06 -1.4656126080157387e-03 -2.9105479963005822e-05  2.9298961985519882e-05 -1.2067263120643789e-03 -7.6815723371731522e-05  5.2949407046842876e-06 1.4765366509747067e-03 -5.4024796209114126e-05  7.9981102483565920e-06 1.4199043161828343e-03 -9.6628892886211837e-05  7.4892331784146922e-06 1.2499801514284884e-03 -1.8573280737491294e-04  1.9335869821535613e-05 6.5136115139706138e-04 -3.0909264040477426e-04  1.3584048785845476e-05 -1.2223470811994304e-03 -1.7359910085867474e-04  -8.2595517771670967e-07 1.3320272486150109e-03 1.4510030490282977e-04  9.3141640980614731e-07 -1.5000723246557997e-03 2.8855212187360422e-05  8.8956004207127607e-06 1.1353668025867055e-03 2.2326217884383956e-04  1.2519267303695464e-05 5.7993980011924432e-04 3.2535773375270722e-04  7.2631354266103833e-06 1.5057820248532048e-03 -3.0071530584028265e-05  1.1093465180617049e-05 -4.2947972714962466e-04 -3.3264523593797593e-04  -6.2277653036882608e-06 -1.4472027323215540e-03 8.3056863614927020e-05  2.2459878346638338e-05 -6.7238123112764111e-04 -2.7497113974458536e-04  2.9632896977930517e-05 -1.0267829793059458e-03 -1.6394315617149679e-04  4.7053734377220390e-05 -5.9346308804764439e-04 -1.4294471372082879e-04  4.8496187994737702e-05 -7.6313767079760691e-04 -4.1219871167975228e-05  5.8954490265796376e-05 -1.2651388318647775e-04 2.9891663999902363e-05  2.3789198929831065e-05 1.0432212660683679e-03 2.2991269391129816e-04  3.1421757813884123e-05 1.1454273559496626e-03 1.7133884561403899e-04  -7.2247215459624574e-06 -1.5138438785766229e-03 2.9563131664484113e-05  7.6991813017183523e-06 1.3918757587980022e-03 1.1727568364971020e-04  4.9516861720826973e-06 1.5042355631918515e-03 -2.7458112477257936e-05  -5.0308360781092271e-05 -7.6015680368148205e-04 -1.3369225429529980e-04  -6.0751737719352901e-06 -7.2869278836360668e-04 3.0787119710186682e-04  -5.9786376739925494e-06 -1.5339604803583746e-03 1.0608457519392759e-05  1.5815887322270483e-05 1.3160647152014220e-03 -1.4782198995996594e-04  -4.8859722623563446e-05 7.7286559761321713e-04 4.7601689473203838e-05  -5.5213601980776382e-06 1.4514920069929212e-03 -4.0838729494965578e-05  -1.2008231228652683e-05 1.4262684145024719e-03 1.5991454459971109e-06  1.8962380622486924e-05 -1.3502696616882184e-03 5.4198264396921707e-05  6.8121341576896463e-06 1.5262090896938218e-03 -6.4188423282214081e-06  1.3170400044777951e-05 1.4927926911903380e-03 -2.3310683653938367e-05  -4.2485257126028801e-06 -1.2666786383676428e-03 1.7835856252695776e-04  1.3180019377563965e-05 -3.1183392639330280e-04 3.3501856258091254e-04  2.7421998591303811e-05 -5.0187696071063415e-04 2.8782221193696090e-04  8.6802943622297139e-06 1.5300075456362839e-03 3.2712397719496375e-06  -6.9626410619906921e-06 -1.5360289522545322e-03 -7.8036514269194036e-06  -2.5604488458358526e-05 -1.3564692799404316e-03 -1.1436003595183009e-04  -4.9103128074710424e-05 7.7716787342323830e-04 -4.4017223261088371e-05  -2.7862200646240744e-05 -7.1398411513591358e-04 -2.7207311128589918e-04  2.6091696082169313e-05 -1.3058314619871531e-03 -4.8429605044495093e-06  -3.5467439049268966e-07 -1.3344911209787309e-03 -1.5357011563048390e-04  -1.5489698954253840e-05 1.1389987858687538e-03 1.8869056414390351e-04  5.3385792492527058e-05 2.4699595987722340e-04 -1.7717545646820759e-04  -1.2262471982754714e-05 -1.3991509431807714e-03 1.0986784599253321e-04  -5.2349773446283179e-06 1.1151519193769951e-03 -2.2577142348343849e-04  7.6243191288272038e-06 1.5211428222451926e-03 -1.5777525021144247e-05  2.6061303260840708e-05 1.3575545864705073e-03 9.3975829298297250e-05  -4.1676120157227618e-05 -1.2177301226761860e-03 6.5902965943261447e-05  3.7991466109513553e-06 6.7066662829319470e-04 -3.2073482980963592e-04  -3.9466709548573520e-05 -1.1764383335987204e-03 -1.1630960372883555e-04  5.7268660045632213e-05 7.3798070791111423e-04 5.8776643690103121e-06  -4.1969629250359996e-06 -1.5208654240074829e-03 -1.6111274465668613e-06  -8.1176745196502094e-06 -1.5290712009702430e-03 1.3921167626980192e-05  -3.3720364759634426e-05 1.1769808872170832e-03 1.1566577562436718e-06  1.5653962034470601e-05 1.1352222360786089e-03 -2.2239888528921420e-04  -7.4167537776684159e-06 1.0571735513873026e-03 2.3509843685333570e-04  2.2018378330747937e-05 2.0565733843214156e-04 3.3058572751686299e-04  9.3663784921297139e-06 1.4976417458445496e-03 -3.4343911912192432e-05  -4.3659244758157904e-05 -1.1650490840146995e-03 -7.0903804616197002e-05  -7.7387006363639348e-06 -1.5375340127115815e-03 6.1008913534375033e-06  4.0183668901423032e-05 7.2706736835377811e-04 2.3150352360434116e-04  2.9189416697831826e-05 6.0633019605103996e-04 2.9045610098352262e-04  1.1164826957697647e-05 1.4480719945927270e-03 -7.4751714094086193e-05  8.4853477115272389e-06 -1.4580789080724319e-03 8.9711876358575090e-06  -4.6801859473526072e-07 -1.8499938705726882e-05 -3.6578967263363721e-07  9.9505499414964939e-06 -1.0802179381625002e-03 -5.7693440074725165e-06  -2.6025728206768813e-05 4.9971531327653066e-04 -1.4621374378178252e-06  1.4281050546875878e-05 1.1281981112349338e-03 -5.9583637576066021e-05  -2.2901038968494999e-05 -8.6394733797255576e-04 -5.9670698617505944e-05  1.4775820020406482e-05 1.1601185014695449e-04 1.5362299265252226e-04  3.1286455917574356e-05 2.5642310575956282e-04 -1.2255876712693709e-06  1.6484170608209454e-06 1.2170700740732530e-03 4.7241324615254765e-05  -2.1446202067760003e-05 -7.0334414328984099e-04 9.4635141233544517e-05  1.4977783575031636e-05 -1.4684192138216226e-04 -1.4810107029884957e-04  -8.4422420002560362e-06 9.8570649977380398e-04 -1.0163235343909112e-04  -6.3617172605749244e-07 -1.0737998986149976e-03 1.0533857894538728e-04  -9.6769464165798291e-06 -1.3590366447501765e-03 3.1904322721629424e-07  -9.9694746763198659e-06 4.7111588842990623e-04 1.6778320034299359e-04  -1.8423471023965799e-06 -1.1493774623484952e-03 -9.8643954688699308e-05  -1.1698378498167643e-05 -1.7589469057914842e-04 -1.8269244548334493e-04  2.0779153563444267e-05 1.1648824529663195e-03 4.8689725624502556e-05  2.4579825679278736e-05 -6.4106808947550096e-04 8.9046293900682641e-05  -3.0274144692540262e-05 8.7100181222917941e-05 -1.2367153147838973e-04  7.2756195370757937e-06 7.7658530230456354e-04 -1.7833909585508089e-04  3.6682022102245900e-06 1.3883486331341872e-03 -2.8326934869760235e-05  -1.6072371690814379e-05 1.0133970375871787e-03 8.6224718604806038e-05  -1.0347952968758665e-05 1.2792206431323123e-03 -7.3473258935045400e-06  3.1208716318497977e-05 6.9979755740409494e-04 -1.1082393091942369e-04  -3.6567907532845623e-05 -5.9781836423589076e-04 1.7766127464265768e-05  1.1258539847184811e-05 1.0635830460608211e-03 1.3833865358240475e-04  2.9012469575637325e-05 -6.6060501469693733e-04 -6.6965378560781999e-05  -3.4576547022363003e-05 9.5916314844667218e-05 1.1256371781895719e-04  -2.3631265996902799e-05 -1.2574862511159819e-03 2.1259228475470389e-05  3.4536610181575219e-05 5.8230852501789398e-04 1.1018506170970518e-04  -9.5938888666346147e-06 -5.8030894140544890e-04 1.9940760122776185e-04  -1.1273452194605301e-06 -1.3983109724847172e-03 3.3437111660208788e-05  -2.0067933545743542e-06 -1.4291348110394844e-03 -2.8584226787581938e-05  -1.4587340968618980e-05 -1.3509151497334835e-03 -6.6102185988527041e-05  2.5610605838958279e-05 1.2682156199452835e-03 -3.1321278722732998e-05  -1.3490487527885854e-05 -1.3254775808406386e-03 7.0442895801686113e-05  1.0132361755796579e-05 1.4361174835982188e-03 1.2458253210964024e-05  1.4568792500987515e-05 -7.4007086145013649e-04 1.7762921386481014e-04  -2.5449020667021002e-05 9.4277247967321297e-04 -7.5431677510479566e-05  6.0530067685689492e-07 8.9209821051126155e-04 -2.4549980563372505e-05  -9.7516607181905851e-06 5.2931701853574029e-04 5.8076720824097972e-05  </DataArray> 
</PointData> 
</Piece>
</UnstructuredGrid>
</VTKFile>