<?xml version="1.0"?>
<VTKFile type="UnstructuredGrid"  version="0.1"  >
<UnstructuredGrid>
<Piece  NumberOfPoints="201" NumberOfCells="657">
<Points>
<DataArray  type="Float64"  NumberOfComponents="3"  format="ascii">-0.7637937134435034 -0.1674468778887942 199.1957085763401  -0.3058830078287789 -0.05766313155933836 -199.7220991821695  657.928719161273 -0.1015494795256531 -197.2034149533321  1223.986900020617 -0.1848137276416401 -182.0418535322122  1641.090703047138 -0.1728998703446945 -147.1912661891853  1893.495451221278 -0.2237602068830789 -82.43712012277052  1978.033248934933 -0.488097868848309 0.1572725365831939  1893.626074451515 -0.6008887112919323 82.35432993635754  1641.076672098881 -0.3462845809390577 146.8290254047159  1223.83005875863 -0.3272480980751784 182.0826033563693  658.0609343876361 0.2886650482478283 196.4799711229822  822.1512492803848 -585.6306951651579 -189.8129859329336  820.4088031836965 456.0861514061211 191.3111977568809  1886.108136432111 -496.1737275879982 -40.40197285657504  1401.573475520998 -555.5990751972794 161.4664253077539  1734.104178161955 506.3589402966313 110.326926529132  1728.012508187274 505.8945030451421 -111.8495662023806  916.2409865076436 523.329478382555 -188.5642619283122  320.6774250788887 -530.7457357611016 196.7781562529809  1394.333566597112 -512.9489234670314 -163.5370777200824  972.7437743447862 -1008.622458181462 -166.8896285808441  1417.33404469272 -970.944064512025 -124.115235065169  969.5188483235769 -1385.825511633431 -119.7274078014043  1350.304693687628 -1286.801241500231 -61.67209605189733  846.1928237835538 -1631.354355271446 -52.27798865738023  1202.022507827471 -1460.612811653839 13.36179239012406  630.8549011984107 -1740.055300169285 23.82349499068606  922.7465545767038 -1521.130670837348 89.01159188048314  332.4941930345069 -1706.773068351416 93.64501348276404  601.1841184675899 -1412.947373393331 146.3035405313958  -23.51280838848217 -1517.9982608967 146.2931074999363  1413.248579126741 -1192.855302296717 75.53122233914634  1395.155976885495 512.3815519503955 163.5957943854669  1390.080956820767 978.0160408196152 128.1087466787643  1658.654847127373 925.5080134418523 60.95880014799467  229.846099557986 -1151.716601467462 178.5606947348013  839.0208462946267 -1004.241012808296 172.8532021473431  975.2235254776008 952.7362997574942 170.5894142651196  919.6655149683644 1368.017534359513 128.635496300451  1889.980657295524 -484.2005307057415 40.36457711102439  1664.347314491015 -998.0505132224945 4.671169216300923  1738.479481462423 -506.9171606943358 -108.9027746287449  320.1854461753676 530.9233303404031 -196.0077258353512  1382.350851260014 500.5827701971404 -165.3947474401675  1379.924717082975 973.3794194232718 -130.2691652943876  413.9811660741129 -1659.597035469517 -104.6764259451857  -290.174780529993 -1726.545313596726 89.04316019752525  421.4640233352306 -1047.732530077179 -181.855215537234  1647.835571381936 937.436481438461 -63.09104153200693  1233.885569115517 1354.495804398067 -75.28115313904827  890.5820060195105 1337.173965661343 -137.0547676746399  692.2365579352314 1643.504582722648 -80.28503732276556  310.1082258422439 1562.321010181463 -133.5919357948153  88.52642435598239 1777.424083853231 -73.00776125248093  -317.7261187533566 1603.815742630871 -124.2886468557017  -516.5192372493702 1742.4590745839 -55.71184983812027  -916.143199938312 1498.252983682493 -98.6989137958992  -99.98390868505932 1840.175842500414 5.110825718759513  -646.1472723103724 -1454.482510433428 136.7439824453617  -877.0411417498879 -1585.372197505676 71.92603062198056  -1065.688072832419 1544.542454359071 -27.61853774016257  -1412.083214240559 1213.552190310983 -69.16725881671665  -1496.822849523226 1205.625969784658 6.240479600771941  -1759.947511479744 796.5145653715007 -43.83822128736223  -1783.201824801824 756.0074483186244 40.46683911493493  -1583.208514735444 763.9006604182492 -118.8557752139099  -1450.202140513485 1122.749295371335 86.17533657195892  -1867.738064358682 332.7668560877419 -78.64152117817393  -1667.008967915679 628.2958071148762 114.8273026411969  -1621.079500387814 217.5941470446117 -147.3561257314586  -1795.963118124687 -242.3856638303523 -110.098614338802  -1256.867607262759 957.0998586298994 148.4728156078189  -292.1681483873523 -808.6349537758972 190.6868617921684  -1208.992408518016 -1236.521832735421 114.9920784731423  -1469.134677505453 -333.8062289884675 -162.3834173184413  -1559.390883213946 -772.4769672622622 -122.7784659378026  -1907.371112449934 211.5711804748833 68.17094387751108  -683.9647482493518 1265.798058379186 -160.312329684678  -1403.021271618377 412.7401112151746 166.7100653975735  441.9340458956372 1283.783852796544 167.0628392826434  -1832.710179699041 -625.1474393090748 -46.26907664540673  -1210.892650432582 135.5204370460731 -182.901539048849  -942.9662530812701 744.3068116462925 181.3913933870647  -1147.195195454878 -845.8426437521712 -166.8371377711447  -1176.97673200049 -1235.87029967357 -120.2853041369308  -990.7532241332683 1390.773237893515 115.9738069707635  -498.9511550860435 -1781.025994401787 17.48104929488935  -1004.01719838682 126.2818473201368 189.7267047280032  -1448.040292194009 -178.2659814237149 167.4899333153788  -691.5256704685413 -1258.263412271305 -160.2506564836475  -679.2424725978216 -1574.775173624119 -107.4590965411751  -611.3136284512464 -814.9635080376867 -188.1629616163809  1003.520390227086 1587.079022834092 -7.631640238954417  -1352.137000879492 -1312.491819368556 47.64110909956843  -1634.283616800768 -890.0826422000417 82.75297450274708  359.3061833525241 1620.86318769307 118.5146098767973  -132.762352349441 1478.605637546427 150.5110979822076  -46.89190674692446 1135.891948814978 181.6597948177694  -574.781270332498 488.8025649185199 195.5035651378335  -927.8425509489143 -1032.452080993806 167.832771499228  484.617018686823 1256.698917411814 -167.8999616742541  -1112.288237341458 -1478.9300502846 -58.43294119990697  -155.0457073006399 980.8751822494789 -187.2746177891342  -350.1885705683004 427.0061689956753 -197.7803891704874  -222.8554452542731 1734.120213033441 88.76869713117358  -450.921872266031 -303.6104382758683 196.9672508992663  -146.4329313981216 -1543.136691482507 -141.0696796860096  -955.4657487730396 -478.1178725870274 188.3823092578863  -1427.668889289446 -749.461402137848 146.1484413083251  -1755.144030980149 -356.3028298395347 115.7065909457804  -1896.175641405183 -457.8970724259103 38.34717915255042  -1968.414775146427 -58.97398150285235 -23.91483072685189  -801.0047449808636 829.1154814602563 -183.448839825  -1190.60740120507 901.4724704325997 -159.7101417357513  -170.5944846679935 -1747.330853604534 -86.03458857669673  -70.0157430521412 1402.43502619175 -161.1192232801716  792.2004191161991 1626.309300021982 69.24339582843994  1728.590337622221 -484.4721141370833 113.1732588138485  105.2872013233945 -557.4358688549024 -196.3166591270221  312.6973370931258 -1800.755713160114 -41.42552162258848  -625.6713020399869 1218.065978886613 166.6284787240571  1893.893267059805 464.8886733834279 -41.3001147487286  1269.265295112174 1341.166382394554 68.89581016744512  1490.821993564135 1210.928489276891 -3.115556352787044  -1516.580002100236 -1101.278570805959 -67.45049714151298  -656.3302343204845 1734.522168543002 20.85028180366615  -1102.234247668576 1498.74692223146 49.12034170693781  -112.6109108591681 -1176.681220886121 -178.3055501361034  -497.1803038658106 -219.8282715513337 -197.9000512977437  -1028.793388106234 -346.6179983660397 -187.7045289664547  456.2801057565214 1791.263348961342 -13.92199266165771  52.48116472326769 -1832.934822121375 29.90294131237929  1115.336875149454 -1187.064271666968 136.7581070906712  1896.526675865515 470.9224796943771 36.64559060122192  916.215324665054 -519.4378011056542 189.0277555118875  -1673.269718485529 -983.8993176448809 6.755929902363695  -369.1444034946486 -1260.848061829764 169.9989964555892  1002.911282674312 923.993251504357 -170.4303393996803  -1724.914139503837 150.3289577916185 130.4537776161495  456.7647121874624 -1408.893067343837 -152.9239233751742  512.2269435102394 930.0025968071764 185.6834423014414  281.6111863119879 1787.16176730345 55.89899776278028  -1250.519515800712 1172.978331904303 -120.5311083059059  1663.107705256606 -892.5018514780338 -69.80766848440332  -32.86605757855661 512.2030983939902 196.1872554230704  1520.851063083525 -877.1874376089067 117.1121833000291  -1919.662354450632 441.2049224916774 -6.336960331885177  -1022.149604966843 -1579.949876805008 2.301112198374963  -625.6375726645371 -1725.797618546038 -44.64883127413897  1775.352907686586 814.6161501220218 -2.021930173228276  -467.1491880138685 953.6904992159721 185.703638789256  581.887281200389 866.3345207005127 -187.2752265857011  -716.0931114700562 144.8054514544577 -195.6313715823512  -729.2371622202267 1623.469852505108 83.68561217598851  1691.953310312391 -830.8898658181115 73.4402714148995  -136.1965190660413 -1831.792118316887 -27.02589417295301  -1319.826281380168 497.1967538432498 -169.9750550965596  -919.7842962918555 429.6739294313547 -190.2404065210022  -564.9875802034443 1509.045073527117 131.9631602536866  -1391.338255140897 -1308.496447770891 -15.00374110962462  -0.03877781881350245 0.100953848371785 -0.07518090209575229  -670.9956262007371 -762.3995407763857 5.839606376840216  1014.393789016716 297.394738248309 -1.033303714862646  -406.452642413911 803.6777717694821 47.1509303535312  758.9983193842469 -569.6398477916657 42.9933649289954  -502.4299519379535 84.59009603696491 -90.44524400082646  -1043.608118952161 151.2600308373043 0.05474842161252221  200.3212341196905 908.0818065234541 -41.16950672181645  710.9050989258573 -449.2589588510609 -63.24859426779743  -557.3431577530278 -85.98138038128883 88.50951084842292  529.3925247796662 677.2222676090905 74.03031591782209  -195.5700141272306 -774.1688755057921 -79.90329079275821  172.3674993960074 -1104.722729266259 0.3482147029592418  425.5417048326378 299.1932230738
[...]
<PointData  Vectors="Forcing"> 
<DataArray  type="Float64"  Name="Forcing"  NumberOfComponents="3" format="ascii">-3.5378874510576455e-07 -1.2556808285646964e-07 -7.4755620953163507e-05  -2.4251240234718520e-07 -1.1428957918516759e-07 7.3726418913446079e-05  1.4553527273604377e-05 1.0201181721289603e-07 7.0327012946773637e-05  2.6125380245640897e-05 2.7117951618960432e-07 6.2835860409878061e-05  3.5646397653759975e-05 1.6504505576669790e-07 2.8204422268551675e-05  3.5492753156461024e-05 6.0936667516910533e-07 2.8044143061728338e-05  3.4539208996755953e-05 -1.4679209796007811e-07 3.8467899636790878e-06  3.5173737492761898e-05 -6.2602669542231769e-07 -2.2581238085221530e-05  3.5012159496435756e-05 2.4930700232407568e-07 -3.4814416560281639e-05  2.6045056021188812e-05 1.3738834427176606e-07 -6.2713805693536472e-05  1.4539738289052861e-05 4.1138942827713390e-07 -6.3430307068207566e-05  1.8328862423607482e-05 -1.2707431921068900e-05 4.7314643806497522e-05  1.7778007131885612e-05 9.5463699810233417e-06 -6.5569899352455052e-05  2.9281707796799682e-05 -7.1087428391570580e-06 1.4829497309241118e-05  2.9645125258507222e-05 -1.1381225110618173e-05 -5.2885018711990514e-05  3.4524371462668971e-05 9.5896133016017402e-06 -3.6659044196473144e-05  3.4636627774711567e-05 9.5008316903554372e-06 3.8362099741076831e-05  2.0284371225464967e-05 1.1278444024533886e-05 5.9158905824214971e-05  7.1985890882240684e-06 -1.1668826736174158e-05 -5.6378228462446133e-05  2.8982024329354484e-05 -1.0058144582472909e-05 5.4585473183487645e-05  2.0176831516895542e-05 -2.0157375197523251e-05 5.4314783016674966e-05  2.7403799159897659e-05 -1.7294425999961317e-05 4.1638578689160424e-05  1.9543312562947478e-05 -2.7013480599636263e-05 2.9995555471226446e-05  2.3520224247211690e-05 -2.0784380740063961e-05 1.9140288968106374e-05  1.5734362847970862e-05 -2.8289744240310052e-05 1.7489357113372282e-05  2.0387379864492790e-05 -2.2852286907074203e-05 -9.7356570266660436e-06  1.0646614064262098e-05 -2.8409274078469120e-05 -8.9109711560354380e-06  1.8839027446906293e-05 -2.9983403962454488e-05 -2.1519371254951361e-05  6.5699066606863826e-06 -3.0786084681114646e-05 -3.1028704338615137e-05  1.2983727447514614e-05 -2.9523870045137605e-05 -3.0464697298416692e-05  -2.6143302770025548e-07 -2.9307521243716598e-05 -4.4089736878795088e-05  2.5555566692340062e-05 -1.9468152178942171e-05 -2.8840744047230656e-05  2.8472938483924868e-05 9.7046742224095077e-06 -5.4814798183236378e-05  2.7776479279437420e-05 1.8385006107257313e-05 -3.7381252679827047e-05  3.0004685136277647e-05 1.5940800744640967e-05 -2.5780348776720874e-05  5.0125371615700315e-06 -2.3832897836882753e-05 -6.2083782940371601e-05  1.7799524147628780e-05 -2.0485866812100180e-05 -5.9312556622864355e-05  1.9737363754040606e-05 1.8859598720864801e-05 -5.6031615726129424e-05  1.7357489195813595e-05 2.5068291339469776e-05 -3.7279963468263206e-05  3.0170263398852623e-05 -7.5794800417855967e-06 -1.8977314162811070e-05  2.7145634974289283e-05 -1.4758814724836391e-05 -3.9995077925955733e-06  3.3332278222180475e-05 -9.5522892321837027e-06 4.1805641025838161e-05  7.3292650775340540e-06 1.1327344858099832e-05 7.2915284725174064e-05  2.8502489983858147e-05 9.9530683526213952e-06 5.6178373223536850e-05  2.7832064621517071e-05 1.8827112536688774e-05 3.6887997814958908e-05  8.0862985771011978e-06 -3.2280169780588679e-05 3.1174877485387618e-05  -5.8259062210146291e-06 -3.0547450163178602e-05 -3.4289943535246078e-05  8.8418187724630768e-06 -2.1885365489964443e-05 5.8391795768350578e-05  3.0572356261201893e-05 1.6585817773526265e-05 2.3940078991119663e-05  2.2030948599355097e-05 2.3264454072291187e-05 2.6666244308941901e-05  1.8051048152177240e-05 2.5501212316463546e-05 4.2569611028178431e-05  1.1813957489151652e-05 2.8321020519761012e-05 2.9698699291453268e-05  6.2490950868604840e-06 2.9264199684574099e-05 4.7947027360231594e-05  1.4446879879114088e-06 2.9654750995247351e-05 3.1050232228661508e-05  -6.2055611063972014e-06 2.9691844854853521e-05 3.8464969650664195e-05  -9.4203110555888618e-06 3.0066939355245359e-05 1.7772027795283096e-05  -1.7637980100091262e-05 2.6639816406826725e-05 3.5941496436211082e-05  -1.6702897769210910e-06 2.9443910983228793e-05 -3.0002910957685806e-06  -1.2754793105115929e-05 -2.7608693740506292e-05 -4.3517243122891384e-05  -1.7566627815534258e-05 -3.0030998329775973e-05 -2.0753253757958578e-05  -1.8474436933424161e-05 2.4885504275732296e-05 1.0479387521152460e-05  -2.4936316216344870e-05 2.0310925776103402e-05 2.7354860236525309e-05  -2.6515501712771889e-05 2.0391828607444189e-05 -3.8373264721575922e-06  -3.0918126006464077e-05 1.2635531608880650e-05 1.4202832078069900e-05  -3.1861556620858352e-05 1.2617569238085594e-05 -1.6421005723561023e-05  -3.2736989264164062e-05 1.5633564961455837e-05 2.9217161497975639e-05  -2.6474847232953259e-05 2.0425602400308545e-05 -3.0489762731093988e-05  -3.4834785770086434e-05 6.3253806869228010e-06 2.8051388656852998e-05  -3.3473941939869781e-05 1.2391048859390531e-05 -3.2696535838499046e-05  -3.3537272580575998e-05 4.8335136337526669e-06 3.6249740461482573e-05  -3.4285809806890464e-05 -4.7180719752956410e-06 3.2249378021858474e-05  -2.5006849430580071e-05 1.7826577743959951e-05 -5.0319149449677897e-05  -5.9446984901763635e-06 -1.7141412373023170e-05 -6.4469095819509888e-05  -2.4015152613456214e-05 -2.3489337178405976e-05 -3.7629982036185689e-05  -3.0000287341918269e-05 -6.6651250935724988e-06 5.3901080178644022e-05  -3.0307716705848372e-05 -1.4536713625899865e-05 4.4975349158949456e-05  -3.3607160697267822e-05 4.3771481521846703e-06 -2.3570817304764129e-05  -1.4323438170427238e-05 2.6494378433816904e-05 3.9145907094348730e-05  -2.9671507609460275e-05 8.2538647561250233e-06 -4.0947285548723291e-05  9.1153694337569285e-06 2.6120475585956959e-05 -5.2236100297974955e-05  -3.1460114393703264e-05 -1.0184540969348433e-05 1.6203174942619931e-05  -2.5549908131428952e-05 3.0635297477209165e-06 6.1173180816038823e-05  -1.9979502292533768e-05 1.5610279384173732e-05 -6.0026535070070991e-05  -2.5352535176161559e-05 -1.8101845136896333e-05 4.0889691776722407e-05  -2.3728203597281667e-05 -2.3887059452365042e-05 4.1576341973457943e-05  -1.7981615606966702e-05 2.5321044594547812e-05 -3.9212070473210096e-05  -8.8158708996511195e-06 -3.0889458765545689e-05 -7.6372490240733161e-06  -2.1406611335561792e-05 2.7285177331582597e-06 -6.5479610450342756e-05  -2.9443455819169850e-05 -3.7675935143243655e-06 -5.5363946146711432e-05  -1.4548282450456760e-05 -2.5152066434308378e-05 4.9826607224947422e-05  -1.3770169078938442e-05 -3.1440469362450663e-05 2.7482252801861871e-05  -1.3451249835510555e-05 -1.7247500379491984e-05 6.6345916017599991e-05  1.6559079687565454e-05 2.4688417745105697e-05 -3.7734948541490137e-07  -2.4578619999497513e-05 -2.2805565473288324e-05 -2.1347758375778423e-05  -3.0940862317103199e-05 -1.6253846430934079e-05 -2.8187706699614809e-05  6.9871316876281620e-06 3.0804143660290232e-05 -4.1902551690418189e-05  -2.9399163894210881e-06 2.8836004292537239e-05 -5.1151238641511512e-05  -1.0831742883319776e-06 2.4611586995790254e-05 -5.3197733352805781e-05  -1.2601828239594445e-05 1.0825491958900965e-05 -6.3416240794528553e-05  -1.9384461620207638e-05 -2.1226822991601100e-05 -5.2575775590876568e-05  1.0147616786159660e-05 2.6016132712334946e-05 5.5225087619519639e-05  -2.0516153940059781e-05 -2.6193601367097193e-05 2.7228610277554736e-05  -3.2141687972295627e-06 2.0925309951725832e-05 5.3897430348789322e-05  -7.5587871701724044e-06 8.5762118188881746e-06 7.6288249997441679e-05  -4.1901396809455241e-06 2.9875914564495724e-05 -3.2336766405354873e-05  -1.0046643471821962e-05 -6.9410566909292779e-06 -7.2632996079146389e-05  -2.9013106733067057e-06 -2.9735216556913324e-05 4.6338138450585946e-05  -2.0465676304759873e-05 -1.0393252625444801e-05 -5.6423180003289257e-05  -2.8724749121406598e-05 -1.5033468866322012e-05 -5.4830254946331233e-05  -3.6696031919123007e-05 -7.3455213320344608e-06 -2.7941078362281994e-05  -3.4944124801187494e-05 -7.8849526737595798e-06 -1.3532447683965130e-05  -3.5009729385330742e-05 -6.4086794423324805e-07 1.0463184455063968e-05  -1.7166012001368491e-05 1.7453215214379247e-05 6.1818737364921194e-05  -2.4508954715309891e-05 1.7881250724360910e-05 4.9065795525080860e-05  -3.5919296025934727e-06 -3.0670973727622103e-05 3.5879687505889363e-05  -1.2271268599172227e-06 2.9697107465060360e-05 3.8464638772783559e-05  1.3916773883446195e-05 2.7169142420837961e-05 -2.6550440666348492e-05  3.2928178923758439e-05 -8.7970329865167882e-06 -3.4771711912005363e-05  2.5619738846860305e-06 -1.2388734674315135e-05 6.5361036656188257e-05  5.7539675480988546e-06 -3.0007113147717513e-05 1.6586085422174407e-05  -1.3072380065058618e-05 2.5447240839724143e-05 -5.2442818853153243e-05  3.1717638813058049e-05 7.5260644599959106e-06 1.8181430553939375e-05  2.2765087933520969e-05 2.2540675802748439e-05 -2.7430583139121900e-05  2.5241319571204597e-05 1.8787552157457711e-05 -4.2909151273110680e-06  -2.6082396307381811e-05 -1.8241928198447167e-05 2.5833977880844426e-05  -1.0368907796191391e-05 2.6372672738607356e-05 -9.1891679021797555e-06  -1.8922281802459998e-05 2.4675577070715120e-05 -1.8873000020604446e-05  -2.2223797352732706e-06 -2.4493316185123328e-05 5.6014320733507457e-05  -1.1070056852427013e-05 -4.5260080455794771e-06 7.5709130890779596e-05  -2.2699283004348333e-05 -7.3981312000527084e-06 5.1220412253922515e-05  7.9003937062658976e-06 2.9505710270354467e-05 5.8461695195098089e-06  3.3080480130454966e-07 -3.0924703549517863e-05 -1.2807446816585624e-05  2.2181494080694719e-05 -2.3198918158029959e-05 -4.3372505128296014e-05  3.1223893502477873e-05 7.4101162276989522e-06 -1.4973780895329339e-05  2.0187978628947866e-05 -1.1144344553062848e-05 -5.8339844555903455e-05  -2.8537158198338284e-05 -1.6056505133486495e-05 -2.7344303099849280e-06  -8.1097519136064072e-06 -2.7060804940228999e-05 -4.4052882564244496e-05  2.0974023172822801e-05 1.8474562011864211e-05 5.7272729346377269e-05  -3.4084553936111777e-05 3.3517902152488536e-06 -4.2462362822673646e-05  9.5412475634657640e-06 -2.8705491757302573e-05 4.2816869435725696e-05  1.1228483079364689e-05 2.0184341224724256e-05 -5.8864290019902981e-05  4.8913131067880074e-06 2.9036648629997160e-05 -2.2730962555432540e-05  -2.4585421522741868e-05 2.1575980191043413e-05 4.6421250607895467e-05  2.8631673124082488e-05 -1.4155103228795091e-05 2.2500868574493905e-05  -1.2951839522007677e-06 1.1012193433146457e-05 -6.8149491661150284e-05  2.9879840394076337e-05 -1.6713745332228855e-05 -4.4156873974252285e-05  -3.1638281378428760e-05 6.7803146215157885e-06 2.5225455222895770e-06  -1.7746483880332164e-05 -2.5313040815147363e-05 -2.4312502630535181e-06  -1.1827416250698037e-05 -3.1926313908627748e-05 1.5662038780011192e-05  3.1720954516848436e-05 1.3299363726215072e-05 -2.7832384379763938e-06  -1.0270307696651260e-05 2.1277449982905538e-05 -5.9891124921515609e-05  1.2923539847300910e-05 1.7995072865112032e-05 6.1157380142180576e-05  -1.5123951075067452e-05 3.2763613251879048e-06 6.7701865669647342e-05  -1.3210735782825966e-05 2.8584844223663666e-05 -2.5055646523100325e-05  2.8212299329744100e-05 -1.3064363901644734e-05 -2.9819275876049151e-05  -2.2372068351321285e-06 -3.1329921597262213e-05 5.2945228940837912e-06  -2.6852710441054618e-05 9.8319634905043001e-06 6.9172751966882365e-05  -1.9973370113245424e-05 9.3704609553634638e-06 6.8027347044782564e-05  -1.0714732879140073e-05 2.7951097208851764e-05 -4.4293150295103339e-05  -2.1510767218433518e-05 -1.8507399339265598e-05 6.1733126409341409e-06  1.3709605203849974e-07 7.7959821642977584e-07 -3.1841618549506910e-06  -1.1594122458979043e-05 -1.3186684731092492e-05 -4.0692579516140377e-06  1.7163430749523759e-05 5.5265171997307563e-06 -2.9884754044833847e-06  -7.1290139755370386e-06 1.4256719717999349e-05 -2.7367695498755878e-05  1.3898971740445387e-05 -1.0092992091624248e-05 -2.1282071716202699e-05  -1.0379103679715395e-05 1.3689751472849479e-06 4.6063695479537888e-05  -1.8571335974475473e-05 2.3845736733436206e-06 -3.2613763619378369e-06  3.5324705657743130e-06 1.5375775461690210e-05 2.8511840148791772e-05  1.3434073580615614e-05 -8.1568344329707971e-06 2.6123106801361599e-05  -1.1079256505680637e-05 -1.3768805888933951e-06 -4.2723157258406618e-05  9.8739519484201296e-06 1.2259733854468261e-05 -4.4393271753440619e-05  -3.6944590500821070e-06 -1.5150600961369431e-05 3.1300494404327193e-05  3.1362421130767678e-06 -2.0436421043790862e-05 1.9962196449339311e-06  8.5405128386488764e-06 5.6734707609951712e-06 5.6941318757932419e-05  -3.0633066106930403e-06 -1.7239893887167115e-05 -3.6948113014637761e-05  7.8980649091098232e-06 -1.5478859227271458e-06 -5.5405615578085253e-05  -1.3471500528756966e-05 1.5576873399111817e-05 1.7994638939894029e-05  -1.8502419187380306e-05 -6.4517681536393919e-06 2.2923584825109256e-05  2.0404356729446204e-05 1.3084912065168971e-06 -3.7684856831133260e-05  -3.0615696981266162e-06 1.0356581501487953e-05 -5.6197403689112558e-05  3.3670927423894239e-06 1.8479415289438137e-05 -2.4963462129646041e-05  1.6526898551443969e-05 1.1865655211917251e-05 3.7511945030748582e-05  1.5479354466898781e-05 1.5190771513600067e-05 6.7872076140430199e-08  -1.9220611815881004e-05 8.2686017829448676e-06 -4.2424467581015091e-05  1.9048335312837505e-05 -5.1766446057178965e-06 5.3479758248890024e-06  -5.1686259477548124e-06 1.4839028423877956e-05 5.1231455488469273e-05  -2.0412305652975098e-05 -6.4779757493873851e-06 -2.7764967379867855e-05  2.2090802989974200e-05 8.1515176338823594e-07 3.5345096898340346e-05  1.3757671407068000e-05 -1.4154085521877375e-05 9.7567660185498520e-06  -2.0414422699225924e-05 6.1939826410064963e-06 3.8980875831676907e-05  5.4968965235548608e-06 -7.9481046556726888e-06 5.2417414524709422e-05  -6.9478689227454573e-06 -1.9955012720066731e-05 2.4230464053935056e-05  -6.4221996565838926e-06 -2.0110081452164555e-05 -2.4389942754184218e-05  8.4576914865883874e-06 -1.9293916246591053e-05 -3.2785417228262836e-05  -1.6518817749295731e-05 1.4128171974859435e-05 -8.7676247062702164e-06  7.4647486711622669e-06 -1.9811678727805659e-05 4.0497907675362757e-05  -4.2615486298851214e-06 1.9894102101386610e-05 7.4874205277539416e-06  -1.4051350399679071e-05 -9.8640644030378910e-06 5.5792331859722059e-05  1.9917598850916219e-05 9.7118552047959423e-06 -3.0927910735183988e-05  2.8928156084114276e-06 1.1104780106710797e-05 -2.2737154300496468e-05  8.8358690985749057e-06 6.0707082309860562e-06 2.8471194653997574e-05  </DataArray> 
</PointData> 
</Piece>
</UnstructuredGrid>
</VTKFile>