<?xml version="1.0"?>
<VTKFile type="UnstructuredGrid"  version="0.1"  >
<UnstructuredGrid>
<Piece  NumberOfPoints="201" NumberOfCells="657">
<Points>
<DataArray  type="Float64"  NumberOfComponents="3"  format="ascii">-0.09451133808027309 -0.02444517811554863 3406.290749731106  -0.1323129653739409 1.030460545403692 -3406.273942789112  181.9125641248118 1.381307422684761 -3237.158743572651  343.5681223584251 1.702944780523901 -2748.320362206116  468.3743767390118 0.08045195606978518 -1991.974354594605  545.949205075578 -0.4236243276606544 -1045.18660691871  572.7668961058226 -0.8057632332573487 -0.09608288906121105  545.8303537453374 -0.1107019382762554 1045.263496385009  468.1273056148875 0.7466853233595026 1991.242508556529  343.6760108451602 0.4474749205841889 2747.817067645763  182.008979506415 0.1667948510697904 3237.019479081528  231.544589646834 -1250.57738966991 -2965.134552161704  229.3331435232795 971.996000165877 3035.446077570521  549.6553061737976 -1159.856847544677 -502.4807611072778  401.6270983194919 -1235.067659513283 2268.564887755071  502.2383529558224 1162.321244090004 1426.563014502007  500.288696495299 1162.414213755309 -1451.87546629702  258.1364219570236 1122.217675899598 -2924.388449361472  89.32509141813219 -1111.38973369344 3244.967914984366  398.2914886649438 -1138.609961601632 -2315.147457250132  283.2670297609274 -2210.259830680706 -2411.085913135139  417.2939784660362 -2196.940781722024 -1656.643366932906  293.5366980142818 -3106.741228666548 -1607.016659132519  409.3942984642106 -2948.904908800401 -788.9211753643982  263.52526651152 -3698.95735659798 -676.6904373426293  370.1697548444652 -3345.925885632533 170.2203944368179  198.8755031923989 -3941.052523615264 309.7040987968047  284.1526769963056 -3434.368854854677 1167.882430571068  103.7627419827654 -3819.194507484921 1248.989635448094  181.2664259852079 -3114.397900109188 2047.208288213558  -7.218202321652076 -3334.133242661817 2056.896934197296  424.4760778322456 -2732.091114257565 976.5968796865267  398.3088054111731 1138.433358890113 2315.393137648985  409.4925765024148 2208.789805589972 1714.256664120328  491.7817077988092 2141.693670466784 773.794651481822  67.08169501739596 -2473.595911090586 2728.757288821057  242.7027174353124 -2182.812977463041 2565.124076301743  282.9565200941986 2083.223114388153 2483.922742566814  277.4951883148975 3053.547410734905 1753.410277579052  550.4956539521377 -1130.827904685645 502.1860853517094  495.4050431040861 -2316.964807443961 58.41477056049365  503.1546715588203 -1163.704830229053 -1413.014153554532  89.24617857428507 1112.431123745449 -3245.724247225949  394.725855257375 1109.208484080253 -2347.204038766221  406.3116955195938 2195.546157418175 -1748.824580802182  128.3363402941237 -3706.228254917648 -1404.905254824929  -90.38550965434381 -3864.303755692485 1183.140868193184  121.5709096647701 -2245.296538869733 -2797.532408174921  488.3902164699346 2166.616102467248 -800.0904369940303  375.6445552796332 3086.972926637519 -972.9332718916697  267.4165723263666 2974.052381889063 -1885.724485602524  215.2754888394539 3702.093133546959 -1057.740391536706  94.53138079116282 3455.481810074838 -1845.594834437525  28.40166398780428 3990.452384687794 -963.956895655152  -97.39528471474033 3557.274072412248 -1705.422832802936  -161.9024183552965 3930.10064782419 -726.3265731065273  -280.406111054806 3371.281192469601 -1303.115608905324  -31.33487980295542 4154.663816184183 64.28685152115155  -195.6501259616562 -3219.9695506284 1893.044150198432  -272.0480433087561 -3583.659564857695 940.1600982242245  -329.8286539545375 3521.114460937243 -352.7065982901628  -425.7008860858015 2777.235829392577 -886.3883002543586  -452.5790177683426 2781.125262876468 79.13467311227552  -518.2472439767738 1851.198031398764 -548.9044483188304  -524.4005041435294 1758.676299597607 511.8518335412056  -462.5642081965348 1739.485315513162 -1564.914106080106  -433.7525343788814 2565.722081027688 1110.242760207842  -540.5894893438448 770.4029503180659 -992.1531059246631  -484.760556660036 1437.336450550278 1503.040517300721  -463.5955476605289 488.8420580184963 -1998.535493612993  -517.8985469752444 -556.5150696965554 -1425.142282405782  -367.8827275170495 2132.361666574646 2054.194719761994  -82.44168890461599 -1708.827715855835 3077.615572578985  -362.268894397631 -2787.032328988561 1534.516699281803  -418.3848864511672 -742.9070715764639 -2284.913819870405  -455.5752697861516 -1754.693329763021 -1624.447647744065  -551.7816286253161 489.5384857347091 855.214954281027  -202.4560529821048 2772.259860855116 -2294.396708584797  -399.7215777500642 912.7807351949035 2366.721163458205  130.5346364744837 2792.376861176159 2436.450566959453  -536.8349360680952 -1457.024447058014 -575.4931709937978  -340.6729482848515 294.9820418895227 -2752.613328903946  -268.5623945148022 1607.788306306679 2743.276106276968  -331.8894387979457 -1859.038720891991 -2392.361399180736  -352.4280466123507 -2780.151090067017 -1614.351479931006  -299.9616623240425 3118.403034172752 1554.436113223648  -157.5229108382109 -4027.569811194208 224.4547143879153  -280.5369453484421 270.5145354978206 2979.501293699178  -410.5495025345181 -395.3747781418023 2382.588965916308  -204.6551651121828 -2754.576992070483 -2301.660180990668  -209.1589395639664 -3523.312971997543 -1436.509376777135  -173.660361532388 -1736.158705652248 -2940.575957317467  311.9850992559602 3619.776615693375 -98.05210577224921  -410.5916912846236 -3008.210232955716 610.3831179350638  -482.7757470241871 -2047.51580907195 1057.868125727914  110.573016374006 3605.706299368042 1611.770674866789  -39.66660230423318 3242.053907045417 2143.810102255439  -13.38694107092596 2435.680841969102 2776.204130634565  -160.019476911751 1031.053344679593 3170.330899742216  -269.7997938073424 -2257.55490913717 2431.361080333869  142.8837218140855 2730.967597484291 -2461.274718893616  -341.7984836223009 -3365.382761096164 -755.1097159958291  -44.4830733365878 2084.713915052333 -2948.778817747959  -97.32438877160567 893.3159983589727 -3281.638685529563  -69.42404720183157 3882.969868692495 1183.16854251459  -124.863890424191 -634.5100246700906 3288.073168624835  -44.58692874824848 -3397.326848082646 -1972.066806585997  -269.1058977882199 -1024.393164837513 2911.913303278236  -413.9696526645469 -1677.313779102142 2008.661807598586  -506.5786380578915 -818.0007314406721 1500.129532444194  -552.5777098568672 -1070.541194999827 475.5344179244828  -570.1158052799863 -140.1649348658937 -293.6244102658774  -228.665207623829 1783.614987255939 -2795.165198841163  -345.6793701720522 1992.418816611837 -2255.213669184461  -53.11964489613179 -3911.995359581891 -1141.099559593303  -20.67031085070709 3057.931445151817 -2326.631046129252  246.3167644548613 3676.715533585479 907.1826152734911  500.4316433728161 -1112.126681229441 1478.107042510462  29.69332341829661 -1164.737592382691 -3269.263173367345  98.91785348685009 -4061.951002222406 -537.9158655742228  -184.2237901807016 2651.803577159478 2432.027293785831  551.4369792037812 1086.783185530511 -512.7746989168641  386.1897179880192 3062.957310445533 886.3328588097168  450.8714122915949 2797.503959799342 -39.0826948519806  -454.0039562564016 -2529.2436032108 -865.8592149724833  -206.3314378918067 3927.971041730192 271.2690300224204  -339.9171379011383 3412.997259116605 632.9236348037016  -32.67649413235944 -2525.55355792151 -2716.332438855066  -137.6198501503011 -460.4692534134441 -3290.118439036112  -288.7140913929042 -745.5387527098925 -2900.30343434061  144.51703326342 4050.803294876829 -178.8471224714355  17.09507605407429 -4133.728622835451 388.3573622966744  331.4522500190371 -2651.96690019111 1868.770138291692  552.286930736866 1100.907223103767 455.1306757868732  258.3657914054328 -1112.630954390497 2925.535926371811  -498.1869523793043 -2284.407161739394 84.22015379649056  -108.3686256906175 -2732.553702598966 2514.355786605659  290.3629672265885 2019.298533419808 -2487.969434178367  -494.8261733398343 341.6283854377697 1725.296366995123  137.0639244153325 -3089.226677653149 -2172.702118704066  146.7990544325259 1987.071437930522 2885.915135711175  89.06230811038947 4024.541703786824 733.6567273792001  -373.0263695241929 2641.384071843236 -1611.728601108057  491.1728092983335 -2061.832532782858 -891.3560729083697  -9.079997846282925 1073.068115446651 3293.908100389814  446.4638965146108 -1993.28889298505 1549.146095710334  -559.5683315036428 1031.314202639903 -77.06107318061511  -317.8303881737862 -3599.455681292632 33.38574791601519  -196.5594408082879 -3901.545056734067 -577.4788750365251  524.2073560720861 1899.204823452711 -23.73731839865977  -133.7107338219 2038.022639786891 2883.072307905633  165.9870559796321 1851.06954834801 -2910.267385001129  -198.8691710697391 305.7779230053398 -3194.859044677406  -225.7358841406752 3654.032418081886 1103.662366113499  498.3445301215086 -1919.862668526941 936.42540871466  -42.68982879966183 -4131.155007598838 -350.9243800495126  -376.2319477636296 1092.998017168822 -2456.114394703052  -258.4894034225441 918.2435436823769 -2967.760095431772  -171.4512624516288 3346.578001394509 1815.394260372706  -423.4210111485039 -3008.130909334116 -192.824116319521  -0.1659675547757493 -0.07347181887601607 -0.2346020481955099  -185.4596060808265 -1688.66343605019 94.24929188401561  276.4387151375332 662.6461871243228 -15.89553545944258  -111.9787128473738 1769.140960032866 749.2832442342691  207.8807844211492 -1259.427314066146 679.5216565802061  -134.8492304350171 182.7244202244969 -1507.299523140147  -283.6009936360125 337.8717026780733 1.088618635561118  55.44076573778243 1998.031628610303 -651.8657273103424  193.3171822665033 -989.4024453249838 -1015.701377788659  -149.770928720913 -187.3654912226006 1461.895695208987  145.1566705323928 1486.558949336072 1183.224038156248  -53.83896098644991 -1691.846514525467 -1287.332725846914  48.78169263411451 -2444.540151744977 6.21766986713301  114.9848815487863 648.9124428817062 -
[...]
<PointData  Scalars="Pressure"> 
<DataArray  type="Float64"  Name="Pressure"  format="ascii">-2.3857423294088752e-02  -2.2818595620486271e-02  -2.5692157126613289e-02  -2.7814900977786758e-02  -3.4974336808189593e-02  -3.8095947323248128e-02  -3.8616475511239035e-02  -3.6936248637930713e-02  -3.5679080107590959e-02  -2.9345070352105585e-02  -2.6389210419405108e-02  -2.3931840239467431e-02  -2.3044482732942514e-02  -3.5421010693455622e-02  -2.7100263114429098e-02  -3.2324205436610513e-02  -3.2606761777077303e-02  -2.4177924888955760e-02  -2.1258755798718394e-02  -2.8597293908316921e-02  -1.6481838207975011e-02  -1.9837136367840777e-02  -7.8924363385236597e-03  -1.3452694980946931e-02  9.7072854424320207e-04  -6.3884323644949892e-03  5.6555880678729907e-03  -2.4334272058256804e-03  3.6685219202290831e-03  -4.4828931468296343e-03  -8.5637230824271249e-04  -1.5565491513155675e-02  -2.9008216178803833e-02  -2.1230355854564863e-02  -2.5464592401829883e-02  -1.2502617503230342e-02  -1.7150501760229690e-02  -1.7918619031891674e-02  -7.5540363237987726e-03  -3.5695660808841234e-02  -2.3237124097533934e-02  -3.2625554081453859e-02  -2.0694094170563511e-02  -2.8738168362095248e-02  -2.1475383552919048e-02  1.5445327915901451e-03  4.5496792077237610e-03  -1.4599201759600135e-02  -2.3672974290471448e-02  -1.0187819405340370e-02  -8.7589525178769882e-03  1.5518014818627864e-03  1.3832392226101044e-04  7.1749913816225152e-03  9.0973333677798313e-04  5.5555372045174734e-03  -3.6727237531612982e-03  9.4148559665978033e-03  -4.2546366211572246e-03  -1.5288459196870449e-04  -3.1151269977386857e-03  -1.4950152769858008e-02  -1.6484228184524108e-02  -2.7785044363519269e-02  -2.8398632233678323e-02  -2.7362944893849488e-02  -1.8213339762358484e-02  -3.7058199398405302e-02  -3.0885594982182803e-02  -3.3999442786687588e-02  -3.5494345239241415e-02  -2.0052419548358780e-02  -1.8025668662543900e-02  -1.3525295776663872e-02  -3.1409988120336234e-02  -2.6587451420067871e-02  -3.7523786741879825e-02  -9.9437753971744411e-03  -3.0254359501088141e-02  -8.2490087678366731e-03  -3.3011808270083008e-02  -2.9259109643299804e-02  -2.2043050456645980e-02  -2.1191561545933938e-02  -1.3272314949194683e-02  -8.7690648584927647e-03  6.1507091194707153e-03  -2.6592177664714698e-02  -3.1872837918342098e-02  -1.0477344366813982e-02  -1.0690096889243118e-03  -2.0180102572782358e-02  -1.3463113204519417e-03  -1.3048447953869415e-02  -2.5428963853976264e-02  4.7054627814411372e-04  -2.4491422261198243e-03  -1.2390780069644409e-02  -2.4982553730000450e-02  -1.6452227987069325e-02  -9.0856342664499597e-03  -6.3770246143787365e-03  -1.5049607064744931e-02  -2.1719329783904548e-02  6.3427853184832737e-03  -2.3025702651504356e-02  -1.9237239975614369e-03  -2.5100843910442695e-02  -2.5519381038299274e-02  -3.5668601576441368e-02  -3.6581733690821169e-02  -3.7619139530973102e-02  -1.8788792947059565e-02  -2.0485144050087500e-02  5.9456631940709428e-03  -6.3962004029274738e-03  9.0724775931478197e-04  -3.1963673079589035e-02  -2.2312610236499452e-02  8.0098213334939602e-03  -9.5669086012878986e-03  -3.5168849633023344e-02  -1.1560979560913487e-02  -1.5661264196908813e-02  -1.9416660511464144e-02  4.8250744057319397e-03  -4.8439596312957528e-03  -1.0295430898845610e-02  -2.4192257963953405e-02  -2.7590595481056853e-02  8.2046255734764487e-03  9.8185670196068511e-03  -1.4607361817925305e-02  -3.5125243344944788e-02  -2.3807299077000729e-02  -2.3662535657690349e-02  -9.1301297578550798e-03  -1.8820484637527387e-02  -3.4668907657391446e-02  -6.3651260854590023e-03  -1.5651241626484964e-02  6.7955607956364031e-03  -1.5693538824349703e-02  -2.5942030733728024e-02  -2.2880915649831406e-02  -2.4434423368476243e-02  -3.4826925015698243e-02  -8.6170103819221044e-04  4.7024181892377555e-03  -2.6485461260815035e-02  -1.5469603755888666e-02  -1.7160380966657507e-02  -2.5807999100653276e-02  1.5491677728859700e-03  -2.6805585861211175e-02  9.1760813192616753e-03  -2.7784388619896919e-02  -2.4151996728687085e-02  -4.3064954310254901e-03  -1.1057133929243011e-02  2.3003018513654407e-02  1.6462203527679659e-02  7.6566997346576172e-03  1.8123339538721174e-02  1.3745539705459038e-02  1.0293077850656380e-02  6.3702102409542048e-03  2.0355685768638439e-02  1.1055297096231405e-02  1.0087586565353891e-02  1.2584525636327582e-02  1.4998942855269155e-02  2.1413870342883126e-02  7.7903328678705260e-03  1.5210497217641498e-02  8.0833391755627572e-03  1.4158678306866934e-02  4.2620796046207894e-03  1.2264238586196872e-03  7.4710016483927211e-03  1.9698107759366874e-02  6.6509646958373293e-03  1.1386001424236680e-02  2.6988577501139911e-03  4.6835592497570247e-04  9.5763702684503668e-03  1.1595813777679510e-05  -2.2529227811438268e-03  1.0416356923440452e-02  -3.4675476866870167e-04  5.3125718771906191e-03  1.7177338025874282e-02  1.7281339803580605e-02  1.3519709513389131e-02  5.8117217204601678e-03  1.4329620647344176e-02  1.9501549662957827e-02  9.3210987755356310e-04  -4.2706119233598146e-04  2.3740973933749170e-02  1.8437621592144803e-02  </DataArray> 
</PointData> 
</Piece>
</UnstructuredGrid>
</VTKFile>