<?xml version="1.0"?>
<VTKFile type="UnstructuredGrid"  version="0.1"  >
<UnstructuredGrid>
<Piece  NumberOfPoints="201" NumberOfCells="657">
<Points>
<DataArray  type="Float64"  NumberOfComponents="3"  format="ascii">-0.005319361531281637 -0.002303714358499591 618.6748856093996  -0.002691720532304362 -0.0003163986788831295 -618.6799221173046  1159.65937027621 0.001430697798014933 -588.4701644151263  2205.645075477169 0.0002679084973979637 -500.7269368806744  3035.527935251301 -0.0002195193104803558 -363.9495110893361  3568.21944067606 -0.0006487525510966642 -191.3894728907495  3751.750430725884 -0.003058566746023767 0.001234976420851119  3568.220725235677 -0.004001831192707751 191.3882403085502  3035.527697157188 -0.001584356041875547 363.9459612123651  2205.643318013891 -0.0004847177161883391 500.7283528103017  1159.659864578365 0.003018444929292942 588.46407216099  1469.118696631195 -1091.728377149227 -538.0441497240598  1459.571488230167 848.0280961248923 551.3812724344426  3571.122720657615 -971.6570923096581 -91.82192615002054  2571.489345631377 -1060.399427177832 412.8040671957021  3248.265734749045 982.7971016885296 260.4049250527279  3234.768676767229 982.780939414083 -264.9430512613405  1640.435681508407 977.174703071901 -530.9753347637555  565.2833125425857 -977.2186337789403 588.4674794672221  2554.83625670446 -977.1028290657877 -421.5248899955936  1778.384976674823 -1917.13255166967 -435.598413370275  2642.157098411114 -1878.953719970746 -300.1045184507432  1811.677421259035 -2685.922349977475 -288.2529120393892  2552.535886954095 -2520.600595800978 -141.9809264929358  1601.642167826604 -3197.604820623446 -120.6019221526255  2280.522982356109 -2869.630777877881 30.50920785105908  1197.879442080048 -3416.272632340091 55.04062541632366  1737.563997443322 -2968.04480953197 208.7943836333845  625.9213338773717 -3325.931895663702 222.0190316741381  1112.039049716985 -2713.100018106957 366.7386078595997  -43.21086143945512 -2914.326010067933 367.443224163533  2664.67301242851 -2331.611533533428 176.2070219676101  2554.842038486404 977.1000412105518 421.5246799895014  2588.499864243819 1891.357082951353 310.3883295690811  3134.57163064795 1812.285773657179 140.513849143887  416.0131056458787 -2165.598682941245 491.318005688862  1523.396709191859 -1898.99987864572 463.301341398909  1778.213269741713 1807.808720893774 449.057138190623  1713.326532021156 2644.44864115191 314.6319257881869  3577.96246337194 -947.9797327044747 91.8106251975006  3154.612741005561 -1958.984181351641 10.63267503286658  3255.463609821393 -983.6731505349672 -257.8456563165608  565.2825281423821 977.2201448007552 -588.4615808106216  2529.41791834983 952.5968995678667 -427.2952289596297  2568.692298056953 1881.183551225826 -316.6129899781042  777.2893113667872 -3226.722893186691 -250.0461926036992  -543.807588396761 -3365.436322451625 210.1868757770044  758.7227554596897 -1966.440291138741 -504.4436089674123  3113.157433014264 1833.901703367437 -145.2107164989231  2328.038987798392 2649.347869381497 -174.7794106044126  1653.127350717546 2578.602573754827 -338.4761438170501  1305.075684803935 3211.150666560965 -188.4247712456227  576.5992327224538 3015.453964257363 -329.3735797776392  168.7765260207986 3476.436983556341 -170.9863444686499  -591.0821353226326 3102.538343655118 -304.0537629325686  -975.2805909927338 3414.218992656191 -128.959907896042  -1718.854002840218 2915.968345440117 -233.0783906564714  -187.5870155971991 3615.763036079758 11.42111931054504  -1198.340489620148 -2801.564642032718 338.8360442878488  -1655.145048962718 -3097.983491413423 167.7874016026812  -2018.092480677881 3030.167588008851 -62.99649728269043  -2665.849972454599 2370.314701140465 -159.8574294984275  -2839.605600733913 2365.006250454437 14.3059051573094  -3330.999509085227 1560.38762701285 -99.92885588798296  -3376.65093977053 1481.113266612782 93.2356151914978  -2959.344596096094 1479.045573629062 -284.4952275547909  -2730.751585445667 2188.531637978079 200.6480142210134  -3524.025453348575 646.8721429766196 -181.4610036669235  -3119.512606068757 1217.618313586646 273.9184194683463  -2999.934843438273 415.2981348719873 -365.0539263032281  -3368.56195724541 -469.8181844268948 -260.6052265874208  -2320.799754127219 1835.516283572757 371.7565297568642  -518.3450601830428 -1500.566167352223 556.6693470242271  -2260.511101556203 -2395.86451574453 276.4209454017752  -2695.831193555331 -636.4814055875626 -416.649510397898  -2912.315523816974 -1493.79259750173 -295.2583102589863  -3604.889783725467 410.5309022047714 156.6067719565399  -1254.359631099179 2415.133318137627 -412.2771777739683  -2567.040658974394 783.8154135779826 431.1917836787412  806.9765354011356 2440.429793505043 437.5687562248295  -3473.323911948246 -1223.635913364257 -104.9812362777301  -2184.264397907276 254.2309310341631 -501.3969161848035  -1701.733069422275 1396.751856220479 497.3116527976309  -2098.831302874068 -1607.088558452288 -433.4329420675792  -2197.503113031668 -2392.674465139178 -290.6993622704064  -1851.978252462047 2694.340581297033 278.8258232374193  -945.5619557461424 -3496.279074587532 39.85377000099349  -1792.245642807242 235.1815672828407 542.2181934050324  -2648.003571628713 -339.745406407777 434.7503444344636  -1268.493666648733 -2399.678202596879 -413.7292035132706  -1272.60466616486 -3058.99491510516 -256.3209825044762  -1093.155646634573 -1519.684325562044 -532.037957430134  1902.233125116635 3119.298529550442 -17.47346834426493  -2558.194731391116 -2569.71422985495 109.7955506543942  -3080.334903004664 -1735.506806513893 192.1113444012477  671.9145069076892 3141.802098217236 287.2284841175815  -242.5675262308158 2833.704844893552 383.4028556775355  -84.03798804354459 2135.380097420405 499.7064229688792  -1016.577789605118 902.2534740831322 575.3550807722565  -1695.154863491976 -1959.507927286369 439.104213360195  884.7718588778811 2385.868092580922 -442.2363169339039  -2102.892931273308 -2892.722221164398 -135.1708599357276  -277.8793890220296 1830.424567160699 -532.0335237300814  -615.7968073585292 784.8613585024059 -595.4392071144836  -417.4800937159271 3382.262103041146 210.1516136526063  -792.8773394384781 -555.530055168637 597.2629807918456  -271.1344738363082 -2967.323864984569 -352.0711458432108  -1713.062872041135 -892.7009772343148 529.0815736250217  -2640.635144301079 -1437.007855697028 364.8549960985673  -3287.29472772472 -690.6702683189355 274.1508469068917  -3596.598825631988 -896.5841430248208 86.91193457376365  -3735.608858456263 -116.6154442962399 -53.8075311906131  -1441.218186960869 1555.165309476371 -505.8925828991138  -2185.729160338501 1720.091514450196 -408.3585092649412  -319.0661540013926 -3407.976062707442 -202.5651368311684  -127.6437416133668 2675.548779510091 -416.6667078675529  1496.084446957791 3183.247132849256 161.6769415210537  3233.694592080479 -940.2136872914924 269.7709706054277  187.503648330837 -1025.556594345285 -592.6030550923209  593.034168634588 -3531.690255413659 -95.35538531372552  -1142.606541358878 2313.105974053742 437.4246169443817  3586.385609986864 911.0078029426846 -93.77966675333541  2397.064609402179 2625.27461571102 159.2887878519138  2827.73528668226 2379.318693446342 -7.078694812482556  -2864.449092390118 -2151.908699245229 -156.5806844718093  -1243.041136184637 3404.764515867575 48.19722372900077  -2085.466139992807 2936.267507729754 113.2663113143794  -203.5120802838185 -2213.96616585195 -488.6664150346331  -874.4867772933336 -404.1298429425516 -597.7231312990342  -1843.455179948182 -648.5596174069793 -527.5412586810378  866.7322869723785 3518.108673218091 -31.63160140871388  101.5600684099477 -3597.18277995881 68.80025179366976  2071.854310157564 -2287.851266894525 336.8374672258292  3592.724045752292 922.663349546297 83.23362898010967  1641.355754787167 -970.1386345783678 531.2773806646466  -3173.217480512194 -1929.718752040956 15.29299997264325  -671.644251403929 -2389.181521273242 451.8057858846366  1828.218963006228 1752.632509443644 -449.977339063963  -3214.680228500948 288.6217764411458 315.4872168938255  842.3199340993622 -2696.450196350484 -389.1944375232883  919.1537376954916 1738.999095451207 521.2797037511511  534.4707694396574 3502.364274798862 130.1121435930349  -2333.508400962717 2269.932095798482 -290.6175342647819  3137.651340009946 -1745.259364893814 -161.8571114195464  -57.42961368982311 941.9413032935528 597.3491322741064  2842.034150685879 -1698.644694647749 281.1901629805125  -3642.650339862338 862.9260365746036 -14.08934407194288  -1939.23277503021 -3099.509830229742 5.970116127123108  -1184.288483176987 -3383.044533608725 -102.6060981291421  3365.766542196045 1599.494611344086 -4.311011856506182  -837.570890654444 1784.124705502161 520.5686232572046  1042.254019855222 1620.20565056928 -526.1332501017379  -1265.173518100756 266.0483087601879 -580.7671571203463  -1371.725899836194 3168.020976883481 196.7076482162722  3191.097344597623 -1623.222254718525 170.3174843318049  -255.560021679722 -3594.190847140052 -62.16849456149919  -2406.436381215884 941.395119882999 -446.882185955784  -1644.748463283763 800.0857066037894 -539.1919617489303  -1049.199172478598 2913.093070017821 324.5087699689042  -2638.083252672283 -2566.618323879209 -34.64181557803176  0.000255732938345385 0.001030135663224574 -0.0005087395048381405  -1196.613819107503 -1417.002838981035 17.14006507429466  1809.427470522958 552.6031561299619 -2.82922719757838  -720.8437602539211 1489.42942648627 136.3289172500523  1348.722200987569 -1055.836650453989 124.0279733975626  -878.7267319006318 154.5552551473505 -275.4935999984147  -1861.017281507891 281.2502168089915 0.2274891769047152  355.553554777894 1684.735191129196 -118.3819677176314  1256.976582969076 -830.2249707457875 -185.3775122821758  -977.7688364041281 -157.752278787246 267.2097481814944  937.5805732052989 1253.578985231803 215.4832781057556  -346.2196827497318 -1430.580333982082 -234.0663417926251  309.6676271071306 -2066.04903176968 1.144178475891354  746.528
[...]
<PointData  Vectors="Forcing"> 
<DataArray  type="Float64"  Name="Forcing"  NumberOfComponents="3" format="ascii">-3.8279468167098126e-06 -1.1765014852776115e-06 -2.0089845793011034e-04  -2.4989926085146250e-06 -4.5718563006604762e-07 2.0019527641619813e-04  1.9266446383473189e-05 5.6353570760348336e-07 1.8787555305423652e-04  3.3965740123052903e-05 1.5474975024800757e-06 1.6997706184329996e-04  5.1681821554053366e-05 1.7887985222372281e-08 9.1404906678674801e-05  5.8332376516177092e-05 2.2678541114786401e-06 5.8137075425533321e-05  5.8721867484121445e-05 -8.6030937070948861e-07 1.2390325320609805e-05  5.4569101321634926e-05 -1.9069975714417077e-06 -5.1153090869792901e-05  5.1346026930805831e-05 3.6008763081798683e-07 -9.8355249700352140e-05  3.3651328667602981e-05 6.3811340725631483e-07 -1.6607311723346765e-04  1.7818466057292928e-05 3.0213117888797083e-06 -1.8149913983383411e-04  2.5792933613122887e-05 -1.7615224504480585e-05 1.3361256269854596e-04  2.2654701792620829e-05 1.1917799584159716e-05 -1.7721586285258527e-04  5.2165187185284206e-05 -1.3015923207303346e-05 2.4799978392161265e-05  4.1519893575257977e-05 -1.5798452989673251e-05 -1.4093175510025114e-04  5.4723186188285958e-05 1.5509300434449539e-05 -8.3348576263181585e-05  5.3602829347823123e-05 1.4727207327579958e-05 8.8910512643135842e-05  2.7429766730599114e-05 1.5573682318718973e-05 1.6053897219372047e-04  9.3741758926996638e-06 -1.5970094855597130e-05 -1.5513589129187300e-04  3.9208868524208371e-05 -1.2220134629206427e-05 1.4395413841012791e-04  2.7672398395614775e-05 -2.7570373505707715e-05 1.4111160810154264e-04  3.9406916944713953e-05 -2.4133528983351850e-05 9.8341865683900309e-05  2.8637919721120308e-05 -3.9170927566898133e-05 7.8352725886672993e-05  3.8423519696313498e-05 -3.5120633268680769e-05 3.6633851972714864e-05  2.6562192428342033e-05 -4.9303354910514198e-05 3.6940366184880868e-05  3.3661892795565560e-05 -3.8208222100684060e-05 -2.0251937183298004e-05  1.6593297009938950e-05 -4.9258554866503677e-05 -2.1130039909916889e-05  3.2069173718194087e-05 -5.1210680784759559e-05 -4.8693499773305391e-05  1.0660139700192643e-05 -5.0546903783378574e-05 -7.0732095572829069e-05  1.8517234852099325e-05 -4.2467200568386672e-05 -9.4995579397929016e-05  -6.1959063262981161e-08 -4.1663782528729421e-05 -1.1251091372102906e-04  4.1345821603598610e-05 -3.1098292209087093e-05 -5.9117370608607283e-05  3.5718862110288274e-05 1.2029940894269523e-05 -1.5173052955325282e-04  4.0604109216600891e-05 2.6359633879164801e-05 -9.2744118562246018e-05  5.2969349884847786e-05 3.0095230871925357e-05 -5.1158039921287793e-05  7.3624815450999572e-06 -3.1947751955866624e-05 -1.6612381314071536e-04  2.3724779586035180e-05 -2.7073933230882515e-05 -1.5916456461911171e-04  2.4249613285107131e-05 2.3706486289702597e-05 -1.5087520399793394e-04  2.4289137642569455e-05 3.7346034273099900e-05 -9.2054874418522409e-05  4.9358927084501457e-05 -1.4633107327973523e-05 -3.5282813505710656e-05  4.6440772288960873e-05 -2.6478742749189860e-05 -7.5543829604407977e-06  5.0115086697342451e-05 -1.5263205619691998e-05 9.3132095685081049e-05  1.0227603494147644e-05 1.2629282909156184e-05 2.0230986791992627e-04  3.7531955715588859e-05 1.3331571847011216e-05 1.4725723648126497e-04  4.0062394935899736e-05 2.7205798617799439e-05 9.6238447570442794e-05  1.2334917033839076e-05 -5.4073863786920811e-05 7.1595465742856901e-05  -9.5517638216411079e-06 -4.4707341585845402e-05 -7.9498801083115238e-05  1.1910932340737601e-05 -3.0049316256590868e-05 1.5099047000857719e-04  4.7705469482904340e-05 2.7279311916441976e-05 5.3487522782097402e-05  3.3598240697174824e-05 3.8912748566942851e-05 5.5619324585292127e-05  2.5409085814776814e-05 3.5765955089005368e-05 1.0599976142749752e-04  1.6600510480920197e-05 4.6376175093275583e-05 6.2176005262672197e-05  9.4554210490391877e-06 4.1173033465563085e-05 1.2082040899878578e-04  2.5247146292933391e-06 5.0662897219491733e-05 6.0595772707339993e-05  -8.2980442658324131e-06 4.3331589639951471e-05 9.3679878727563433e-05  -1.5202622278291487e-05 4.9714669632840868e-05 3.3833482920526999e-05  -2.7908913519368533e-05 4.1143299609289495e-05 7.6946889453369835e-05  -2.7355472129645220e-06 5.5063913853351259e-05 -8.4551138465350531e-06  -1.8042841866571719e-05 -4.0259523566308494e-05 -1.0353358552114748e-04  -3.0110753293795005e-05 -5.0596377144371839e-05 -4.4642614989653519e-05  -3.0479255091374758e-05 4.3107609984415157e-05 2.0069239402993679e-05  -3.9974313622681407e-05 3.3853465501069904e-05 5.3688903468806778e-05  -4.8676439390233907e-05 3.8764321456166844e-05 -1.1297739525325569e-05  -4.8992989346195952e-05 1.9718391960225033e-05 3.0651851322845473e-05  -5.3420616565055522e-05 2.2109260406860044e-05 -3.4399502132381878e-05  -5.1059941547849629e-05 2.6180607235161778e-05 7.4578974283001555e-05  -4.0130728907667552e-05 3.3817046113419017e-05 -6.6440206161943631e-05  -5.7825338494967722e-05 1.1155951008990037e-05 5.5723371800103652e-05  -5.4874536819590269e-05 2.1071308361037085e-05 -7.1506822032251990e-05  -4.5049660391735459e-05 7.9199584082090218e-06 1.0696075433326974e-04  -5.2388708367674448e-05 -7.6161279067922426e-06 7.4663385049321881e-05  -3.1976008256472986e-05 2.2562955182168328e-05 -1.3322288765370979e-04  -6.0686452541365305e-06 -2.0924895831410414e-05 -1.7837861299094721e-04  -3.5516932744212702e-05 -3.3404352539517151e-05 -8.9892697862885371e-05  -3.7328874955896688e-05 -7.7111753443591948e-06 1.4826328479848892e-04  -4.5228834585193843e-05 -2.2725238215622457e-05 1.0359938704765588e-04  -5.2811537892276252e-05 8.1863863796667826e-06 -5.0275083489683119e-05  -2.0493664030667138e-05 3.9107765341949812e-05 1.0635045919693180e-04  -4.0059527269030233e-05 1.0381458582638097e-05 -1.1985273509918240e-04  1.1981349213600490e-05 3.6497755602113545e-05 -1.3745168083683805e-04  -5.1236662673409963e-05 -1.7036965978389056e-05 2.9695752606979497e-05  -3.1745334950516659e-05 4.8555607846459801e-06 1.6628042713560424e-04  -2.5346661768249467e-05 2.1916093178087833e-05 -1.6090708122189524e-04  -3.8150855369043972e-05 -2.7503846401338239e-05 1.1308015735389412e-04  -3.5932627675592628e-05 -3.7065030675470043e-05 1.0271668500213051e-04  -2.5225268926340472e-05 3.7912237801197915e-05 -9.1853331863375582e-05  -1.3934104477352712e-05 -5.3953245643470093e-05 -1.6420245809891270e-05  -2.5542221288824308e-05 3.0494748315316615e-06 -1.8253554858477537e-04  -3.8813334694741732e-05 -5.5069675904459488e-06 -1.4405687310933875e-04  -2.0978443874610161e-05 -3.4994475569831688e-05 1.2861088162256087e-04  -1.9348412563873589e-05 -4.4770552969676681e-05 8.0773321144804469e-05  -1.8048361155675638e-05 -2.2190236221993971e-05 1.8200279026250898e-04  2.9147862452356142e-05 4.7783612906582861e-05 -7.8329327572783292e-06  -3.9649253498560792e-05 -3.8737333732122414e-05 -4.4216151602016509e-05  -5.0923711580288772e-05 -2.9232093882677105e-05 -5.8729216875945648e-05  9.1170584873896676e-06 4.5731879762257442e-05 -9.9849721628796336e-05  -4.7767048929635829e-06 4.0083267427792092e-05 -1.2939913620706747e-04  -1.6684118562095284e-06 3.5967554027781487e-05 -1.4049536797144593e-04  -1.5812639795668824e-05 1.3146465630763507e-05 -1.7996524721107835e-04  -2.6047355374905992e-05 -2.9914089145068286e-05 -1.4056754534408122e-04  1.2908796452309913e-05 3.4804892936023029e-05 1.5115838982679005e-04  -3.1686280835530084e-05 -4.3993868315354213e-05 5.5690960104386921e-05  -3.4835535312026375e-06 2.7761889568242304e-05 1.5107795367551901e-04  -8.7591797956724014e-06 7.6289843397442194e-06 2.0650756656007574e-04  -6.0280356628758402e-06 4.6805455338749185e-05 -6.7806288607310177e-05  -1.2881322420563671e-05 -1.1352848114347929e-05 -2.0439515543976743e-04  -3.7177728865280301e-06 -4.1872885015742144e-05 1.2028776772900112e-04  -2.6787247325567588e-05 -1.5283805111216342e-05 -1.5415784259003142e-04  -3.9674006642191632e-05 -2.3008162543231706e-05 -1.3291287223468645e-04  -5.3978968140229501e-05 -1.0567368571144639e-05 -7.5168408929150818e-05  -6.4409277323414015e-05 -1.4272128108794821e-05 -2.8981940829280774e-05  -5.7738728529292132e-05 -4.3612330581775471e-07 2.2904133820244836e-05  -2.2211393102112146e-05 2.3462445793194094e-05 1.6479958100733497e-04  -3.2822164456173240e-05 2.1114562921215397e-05 1.3143104520299431e-04  -6.3918585437337819e-06 -4.8094037631410199e-05 8.0829061286839585e-05  -8.4432133198742981e-07 4.4637084380011136e-05 1.1139596698541673e-04  2.2223371970767790e-05 4.4492375688036894e-05 -4.9027567688020402e-05  5.0093420870627082e-05 -1.4624743973840879e-05 -7.1436930641772316e-05  4.4082281681451536e-06 -1.5780656518032549e-05 1.7805526673883031e-04  9.8083468410676751e-06 -5.0288358827639081e-05 3.5907348304171502e-05  -1.6092382641858450e-05 3.5334817228299271e-05 -1.4484847065169548e-04  5.2253783676990498e-05 1.3299497884750258e-05 3.7342424100246481e-05  3.3975773687624972e-05 3.6489973021250495e-05 -5.3765039999803516e-05  4.3544530666742396e-05 3.3122757685516242e-05 -1.7302106763818362e-05  -4.2288181948864360e-05 -3.1613292610406632e-05 4.7897144324685875e-05  -1.5872258632305151e-05 4.5109814643278119e-05 -1.3146911735818437e-05  -3.1802490890824075e-05 4.6545164648037970e-05 -3.2678269291798016e-05  -2.0446694004408714e-06 -3.1972348783421413e-05 1.5954613891672371e-04  -1.4478710929436051e-05 -4.8971383864196034e-06 2.0835226844118470e-04  -3.2021205064458046e-05 -8.6318044484812012e-06 1.4116699819893808e-04  1.2554706743399513e-05 4.8515075866505575e-05 1.2442691020063026e-05  -1.0799278660774602e-06 -5.3089658483417891e-05 -2.6199511825706218e-05  3.0166544768352758e-05 -3.3363974382674669e-05 -1.1020173680889711e-04  5.2538986294517023e-05 1.2475334426739754e-05 -2.5527487858617200e-05  2.6370353377857585e-05 -1.5298271169753961e-05 -1.6148969364068746e-04  -4.6713294599922092e-05 -2.7770328877346461e-05 -3.5953570451673808e-06  -1.2385396902517082e-05 -3.9671307957651323e-05 -1.2522125814798198e-04  2.7816583509706376e-05 2.4859437678667567e-05 1.4817113036861348e-04  -4.7000855339112218e-05 5.1497663148133234e-06 -1.0806353832698448e-04  1.2185443680273086e-05 -3.9241363529961138e-05 1.2289963706476925e-04  1.5109538183162539e-05 2.7042071208732388e-05 -1.6773116829405356e-04  8.3216701712646357e-06 5.2891225305793478e-05 -4.2767619905616028e-05  -3.4609816722519740e-05 3.1023902908732587e-05 1.1512252711928231e-04  4.3958436909587903e-05 -2.2017433008277928e-05 4.2090107626710534e-05  -3.2531010547840777e-06 1.3246730466367034e-05 -1.8755528123875196e-04  4.3309645821681054e-05 -2.6012706629461044e-05 -9.9641907593625922e-05  -5.6536546227543132e-05 1.2461325805107295e-05 7.8795292943174936e-06  -3.0271655344452379e-05 -4.4461214318808936e-05 -2.9833039690205403e-06  -2.0813680195252427e-05 -5.9484120465950903e-05 3.1991827903604666e-05  5.3017872308533109e-05 2.2856955622089398e-05 -1.0423598231013451e-05  -1.3503866768547194e-05 3.1522774464780935e-05 -1.6547582804183022e-04  1.8156680035759482e-05 2.1467468822166506e-05 1.7635393419723920e-04  -1.4716249454074167e-05 7.3089276240194664e-06 1.9743190446592463e-04  -1.9346546789036572e-05 4.5429666652955138e-05 -5.4326509419833670e-05  4.4063858295391216e-05 -2.0911196762574733e-05 -5.7024484613665069e-05  -3.0881573432315872e-06 -5.4849250860179041e-05 6.3683961894101464e-06  -3.3103808042440737e-05 1.2257585356226408e-05 1.7264883180803038e-04  -2.5083989528975076e-05 1.2682440524288883e-05 1.8528611430259338e-04  -1.3966036150413612e-05 3.9687517352686375e-05 -1.0336766966940168e-04  -3.8536760422353935e-05 -3.5079970352560592e-05 5.0180538759372529e-06  9.1341247830864934e-07 4.1354649090962680e-06 -6.6887403724635764e-06  -1.4485500893347650e-05 -1.7938370379805537e-05 -1.3285042211645016e-05  1.9853937940684130e-05 7.6871262867383683e-06 -5.9502795367781149e-06  -6.6592515623232457e-06 1.7001644632323536e-05 -7.1748202794551339e-05  1.6142127422350116e-05 -1.2394765414061852e-05 -5.5106944217072087e-05  -1.2744155212423519e-05 3.1502661109584688e-07 1.2482005943138176e-04  -2.3902203365214956e-05 2.9387611539123461e-06 -6.9833865878674952e-06  3.9530558515975304e-06 1.7733369741778133e-05 7.0349782261755548e-05  1.5215205218667254e-05 -8.8397938950594651e-06 7.0562457725337186e-05  -1.2215464264028974e-05 -2.2270456304584927e-07 -1.1785978873256117e-04  1.0193354414860739e-05 1.2778479985836525e-05 -1.1894359898851321e-04  -3.7354278607689997e-06 -1.9191103221664760e-05 8.6004763167408539e-05  4.0911821822024102e-06 -2.8775029157141963e-05 5.2454361980957977e-06  8.4579025187412876e-06 4.8859809368499575e-06 1.5733512651571483e-04  -3.1121470897900885e-06 -2.2546622569635510e-05 -9.9300374090939949e-05  9.4582926624856612e-06 7.7945916441508225e-07 -1.5163086790136569e-04  -1.7169464099459758e-05 2.0815510685055614e-05 4.6604194941174575e-05  -2.3633197481769932e-05 -7.6511455805774783e-06 5.4655395033468133e-05  2.5397808593705052e-05 1.9470328492467735e-06 -9.9835828713190609e-05  -3.4117291889060397e-06 1.0760353106113592e-05 -1.5752139948315430e-04  4.0650406065746341e-06 2.4136395946119984e-05 -5.8333176709256120e-05  1.9641946063668649e-05 1.3474884919420415e-05 9.4496306464705417e-05  2.1983938030372228e-05 2.1269312243870939e-05 -5.9786046871761350e-07  -2.2452791287269545e-05 1.0520300166589273e-05 -1.0865250630147404e-04  2.5121598685232034e-05 -6.9857037588396605e-06 1.1146105862605426e-05  -6.8108913733545335e-06 1.5906220898319744e-05 1.3880219655385098e-04  -2.6822180075706589e-05 -8.6008488943388754e-06 -6.5556060463241517e-05  2.7771110891843938e-05 4.7681087630465530e-07 8.8111794106362573e-05  1.7902519685048452e-05 -1.9146537563968114e-05 1.9164618626341483e-05  -2.5368615439394097e-05 8.1681233475582047e-06 9.3663493856504479e-05  5.6012074595253145e-06 -9.3236287039020092e-06 1.4422176495720672e-04  -8.7398680326398081e-06 -2.7219458440588471e-05 5.8193750986967434e-05  -8.7498322128468077e-06 -2.7836721412397623e-05 -5.6591969776590379e-05  1.0787865066499369e-05 -2.5112147441790591e-05 -8.0297525114515395e-05  -2.3204371273335816e-05 2.1014412521543305e-05 -1.8099051182661602e-05  8.7544181710506750e-06 -2.4777264736910796e-05 1.0314228903274680e-04  -5.1309486728988627e-06 2.8745422201548384e-05 1.5160810230682855e-05  -1.5752610413804021e-05 -1.1340317445998898e-05 1.4973681628318905e-04  2.6333182678375702e-05 1.3006746185307784e-05 -7.1452190783846261e-05  2.5371496135384187e-06 1.4568446385325852e-05 -5.7998233873132282e-05  1.0393323035263053e-05 8.3814067408326938e-06 7.5496311971090058e-05  </DataArray> 
</PointData> 
</Piece>
</UnstructuredGrid>
</VTKFile>