<?xml version="1.0"?>
<VTKFile type="UnstructuredGrid"  version="0.1"  >
<UnstructuredGrid>
<Piece  NumberOfPoints="201" NumberOfCells="657">
<Points>
<DataArray  type="Float64"  NumberOfComponents="3"  format="ascii">-1.844290970491304 0.3933692813721942 683.4828819943509  -0.8101217343529389 -0.3209572350173237 -684.2056998214188  1878.95910284395 0.4080500540212351 -662.2615512870517  3503.733836001791 0.161324879503162 -587.5631919749851  4709.347411432089 -0.6018619479889729 -450.7786298768826  5440.965952231146 -0.4414409476520845 -244.575882636483  5686.27991622382 -0.09592190311958977 0.3922817473596442  5441.371312930348 -0.1959726678468005 244.9619309286475  4709.323631080963 -0.429714155602568 450.8219178025411  3503.542261766275 0.45681715812929 588.0327237020462  1879.296653381767 0.2971598762209535 662.2532331185682  2350.509629650338 -1241.319903701862 -614.9384563150566  2344.744351018197 963.5522596375492 628.0583453991878  5415.878769051535 -1158.087931131814 -117.5687846500055  4015.817088121211 -1231.079255037739 497.4981644462993  4975.840133617297 1160.999991025094 327.5694662742036  4957.817707704091 1161.35897648035 -332.3824396294114  2620.10821000967 1114.119868477583 -610.2187309572848  915.7421825564996 -1099.386948089321 655.2829996117973  3995.152978348257 -1134.094390873339 -506.5567278613015  2782.762595725908 -2194.705306636426 -508.5444562260615  4057.619754064852 -2188.80952292757 -365.0711599345045  2768.996955252431 -3086.340769421387 -340.8488567392603  3858.213891217486 -2935.853400405098 -172.9770762442643  2411.629501183163 -3670.931579519157 -142.7515965702081  3429.461477850207 -3327.908071484731 37.19745467026874  1796.114938125181 -3906.313304266578 64.71386844280798  2632.359973641453 -3410.961172728983 247.728673362911  947.8141744525949 -3782.325847646554 257.1989181595754  1717.305937052714 -3087.319233453541 423.5685745509589  -66.43294339901733 -3300.510887309988 420.150168350346  4041.028066574009 -2720.821860824118 215.7841790203159  3997.157078854636 1134.670245550361 507.1096629098908  3978.638069413932 2200.853453523881 377.2058211558059  4751.14382328291 2137.2152081866 176.142948985616  657.0370290117995 -2445.551606284523 554.3351599163077  2399.436931124617 -2164.370049290655 534.3179873149041  2789.603472075313 2069.358988833721 523.4370939161086  2626.574463494103 3032.673233596397 369.9400197176562  5427.146105763801 -1129.913302360687 117.8918982312069  4766.385376932252 -2310.276149788264 13.76779785871526  4988.713466390027 -1162.657583984379 -323.5441924284856  914.5008705904889 1100.111270182101 -655.0951386321976  3960.668389902165 1104.442308323363 -512.7762952733625  3949.8674668106 2188.521259864949 -384.0335947687622  1180.349617205767 -3670.78611651553 -289.5723802477546  -825.731814954485 -3826.388083378589 243.3639883419531  1204.752545397982 -2223.005904046699 -569.5608144906299  4719.876794547989 2161.14917935348 -181.3687221347417  3523.579516356719 3073.308880942506 -211.3763583110161  2544.053675162644 2953.261586449221 -396.4603166268839  1973.077909941074 3671.974711849534 -220.9468776610544  884.9861020143239 3422.082821139304 -378.6803414451134  252.5359830065597 3951.630708295382 -198.0983312263455  -905.1949641267082 3522.737088655161 -349.9269041781815  -1469.332711673296 3896.169362524247 -150.7746147451422  -2612.636614622202 3349.531230866842 -276.0621261422781  -283.7058048918632 4113.419237560996 13.43436346138597  -1843.893174545037 -3193.717351010527 393.0255129094758  -2499.545641304351 -3559.183600382196 198.7956526337402  -3037.266991472013 3499.967079650645 -75.6665901055806  -4036.860889440911 2767.057362196402 -196.429586349958  -4279.433944213752 2772.11071097472 17.44675932321566  -5046.252335974352 1849.341179092991 -126.7634919534223  -5114.332406767617 1757.371748176135 117.5102885210916  -4538.108444168865 1735.641904159602 -352.1497840235944  -4148.507779233272 2557.455812186597 246.7599428763975  -5365.933453159766 769.7189964687751 -231.8813089688342  -4781.657510786926 1434.722021401599 341.043791668516  -4652.822943077154 487.0620796224993 -451.4421933542946  -5160.324952198485 -556.4016383026544 -329.8874041309871  -3596.740381704925 2123.269131531899 444.4201366828007  -834.4006508155339 -1691.220490885982 621.3179483764984  -3456.161294018841 -2772.720978028673 331.4516811466874  -4213.342533944155 -741.5326623545245 -505.4446811739612  -4470.534818220111 -1751.180494968004 -364.5675342166713  -5482.422449667715 489.348502503306 200.777707015477  -1953.23371967652 2750.104966395018 -475.8149472903007  -4021.605856484055 910.4065782922195 519.4554283370106  1262.80694110583 2764.922482863142 499.2861557042258  -5262.34068089163 -1455.300013998827 -134.5481801890543  -3467.40586693594 293.0740346298704 -589.1245703697812  -2697.225082977745 1594.143422879441 574.2794836740698  -3283.6766904531 -1849.643867838655 -511.8155409448408  -3364.579706482621 -2765.792030543307 -348.2051167826893  -2828.01389688151 3098.440913493486 330.2896309511684  -1418.685140140726 -3991.007251814463 46.62287291835237  -2871.736473254169 269.7336506954571 623.9430964822863  -4152.134802699778 -395.5564111179438 524.5216550263692  -1975.999490580671 -2733.262682977448 -477.7467505825501  -1936.013247512523 -3495.236656273991 -300.0047805405258  -1747.32872874255 -1720.337935080548 -602.8362183122268  2860.393907938629 3595.531782691939 -20.59871931997001  -3863.385690279823 -2993.930355041729 133.7070481607141  -4683.877193827545 -2043.656638028707 239.9440013923995  1024.879905212245 3570.4864227222 331.7391676892227  -378.1146242660197 3208.391141786848 436.9891464890079  -133.401013997822 2409.392354143992 562.0582869232896  -1641.565160882179 1019.83924491819 647.4748439066694  -2653.77243758713 -2241.687884256909 511.2929234250079  1384.907468849161 2704.924498119344 -504.7334628000058  -3173.702999051977 -3344.378216669978 -162.6810443077505  -442.6112760506842 2062.916626283453 -595.5924852907721  -999.5655292603104 884.112610042338 -662.9708460830906  -633.8146613650986 3843.637279853008 243.1021344371822  -1287.287428262243 -626.1316950233542 665.8462393086403  -417.1433100987467 -3362.235917616626 -403.0193875512629  -2733.307624747235 -1018.115393974902 609.6714886020013  -4091.211806751968 -1672.473320022335 441.7686384822439  -5041.235076153783 -816.8948847963792 345.8023318021006  -5448.823734565519 -1069.435783141155 111.5558706295605  -5660.837860646157 -139.3477340600646 -70.09011949754878  -2289.908669139864 1769.527378589729 -580.4929834538511  -3407.262640033792 1983.512430750867 -484.5482749488677  -485.2170185068852 -3872.692945065764 -234.5233669420893  -199.3371413968327 3026.367889093328 -473.6667502371181  2257.87865037053 3648.653196816062 190.7210221111242  4960.01337689168 -1111.221621601392 338.0299628852626  300.9659822793186 -1152.736741302681 -656.8892178333065  890.2621123446796 -4020.972362533189 -110.9287641859819  -1787.127681094672 2628.657473329685 501.9417705056518  5437.924908831533 1086.22575647913 -120.1689371887362  3624.959288354603 3049.479206236139 193.536136649144  4261.863143497412 2788.175736509861 -8.640018123609103  -4340.358015788806 -2521.580236410798 -193.3263815335737  -1867.174176691545 3896.303358993538 56.70444881107607  -3142.91586989127 3394.362806837913 136.0386367346797  -321.8235315413096 -2498.245000599802 -550.2873851778256  -1419.516173817733 -455.5688450629899 -668.1741355458702  -2943.426570962143 -741.1470058686519 -610.6297205065239  1298.464127588774 4012.272432679263 -37.07147164873231  149.7733716337514 -4091.862401618746 79.93518906400237  3189.380572714454 -2636.492989209715 400.6353313476599  5445.523386948174 1100.049688887586 106.9341928002918  2620.081893694383 -1106.057110914258 611.0267318293176  -4793.31303650768 -2277.834463284167 19.17569406332319  -1054.392218507769 -2704.117133120126 512.9269066776471  2869.012684249809 2007.1800729527 -524.5152870389877  -4953.621063267403 340.4971459035056 394.9775514259763  1304.957930488618 -3059.965246931846 -446.1130487461775  1463.712673480548 1966.902423187035 588.9510937526519  801.8581151555427 3986.170695471768 151.3272849984739  -3575.165212917951 2630.049278549789 -350.0918704112672  4765.296212909535 -2057.013716882157 -201.9442400759662  -93.5227644650637 1059.065155017982 661.362523768242  4356.877524098211 -1986.953225932339 345.7178744137975  -5514.668932427593 1030.501599872015 -18.45729925080027  -2913.390411929277 -3576.656257033691 6.749027270025564  -1779.914621047782 -3868.61771537403 -120.7661784938942  5089.217269874687 1897.334987425972 -5.439724421584025  -1334.15919436838 2017.860325149718 587.9031454925365  1662.881219928949 1834.214487631086 -595.6345160828866  -2045.616580060805 301.2247725336126 -656.5235008786402  -2077.217105539144 3626.332610338762 231.2725609232043  4849.924175685291 -1915.205103193559 213.6449871233404  -387.0107142282814 -4089.067591799171 -72.30282282525519  -3781.168418691593 1088.831033884282 -532.6025616557531  -2630.330298394435 911.8411451691679 -619.6389971500769  -1611.156500583504 3317.370228788964 375.927012456209  -3975.691243533801 -2995.288997289474 -42.56167770108713  -0.006217583679383101 -0.09308566909243741 -0.09735638124135948  -1917.188852453967 -1606.447920053206 18.90445479931887  2900.034864526524 631.012469165482 -2.965931152941272  -1159.978263946652 1682.069035647813 152.968276114879  2168.358096911798 -1198.35602342818 141.034651706861  -1433.567715623967 174.6309489532753 -307.7982668051498  -2984.230002206234 321.9892403313935 -0.03161660497091879  572.0696864420394 1898.478858355271 -132.210616877972  2030.275119547389 -940.9405741216475 -209.1329788329671  -1590.729832844532 -178.1658081670058 299.1565692097512  1511.694416494818 1417.121166831908 242.229863539694  -558.2245707741106 -1611.791534396985 -261.0062915983883  492.3477353208813 -2330.941207312514 1.171894768601366  1214.471948884447 618.732561310697 -341.
[...]
<PointData  Vectors="Tidal Force"> 
<DataArray  type="Float64"  Name="Tidal Force"  NumberOfComponents="3" format="ascii">0.0000000000000000e+00 5.0277781752058992e-16 0.0000000000000000e+00  0.0000000000000000e+00 -4.1299606439191310e-16 0.0000000000000000e+00  0.0000000000000000e+00 5.2073416814632530e-16 0.0000000000000000e+00  0.0000000000000000e+00 2.0949075730024579e-16 0.0000000000000000e+00  0.0000000000000000e+00 -7.6613762669804173e-16 0.0000000000000000e+00  0.0000000000000000e+00 -5.6263231960637439e-16 0.0000000000000000e+00  0.0000000000000000e+00 -1.1970900417156903e-16 0.0000000000000000e+00  0.0000000000000000e+00 -2.5138890876029496e-16 0.0000000000000000e+00  0.0000000000000000e+00 -5.4467596898063921e-16 0.0000000000000000e+00  0.0000000000000000e+00 5.8058867023210968e-16 0.0000000000000000e+00  0.0000000000000000e+00 3.8306881334902087e-16 0.0000000000000000e+00  0.0000000000000000e+00 -1.5991387176761134e-12 0.0000000000000000e+00  0.0000000000000000e+00 1.2413045624064593e-12 0.0000000000000000e+00  0.0000000000000000e+00 -1.4912868903677383e-12 0.0000000000000000e+00  0.0000000000000000e+00 -1.5856415274557690e-12 0.0000000000000000e+00  0.0000000000000000e+00 1.4951475057522712e-12 0.0000000000000000e+00  0.0000000000000000e+00 1.4956023999681234e-12 0.0000000000000000e+00  0.0000000000000000e+00 1.4352331491644011e-12 0.0000000000000000e+00  0.0000000000000000e+00 -1.4164388355094645e-12 0.0000000000000000e+00  0.0000000000000000e+00 -1.4607251816027366e-12 0.0000000000000000e+00  0.0000000000000000e+00 -2.8271914933207801e-12 0.0000000000000000e+00  0.0000000000000000e+00 -2.8191470482404504e-12 0.0000000000000000e+00  0.0000000000000000e+00 -3.9757036211436478e-12 0.0000000000000000e+00  0.0000000000000000e+00 -3.7813680237715214e-12 0.0000000000000000e+00  0.0000000000000000e+00 -4.7288408499886569e-12 0.0000000000000000e+00  0.0000000000000000e+00 -4.2865340359253351e-12 0.0000000000000000e+00  0.0000000000000000e+00 -5.0322672628623325e-12 0.0000000000000000e+00  0.0000000000000000e+00 -4.3938890708663990e-12 0.0000000000000000e+00  0.0000000000000000e+00 -4.8727849420547600e-12 0.0000000000000000e+00  0.0000000000000000e+00 -3.9773316636003814e-12 0.0000000000000000e+00  0.0000000000000000e+00 -4.2521895226285132e-12 0.0000000000000000e+00  0.0000000000000000e+00 -3.5043374463176772e-12 0.0000000000000000e+00  0.0000000000000000e+00 1.4614613919783919e-12 0.0000000000000000e+00  0.0000000000000000e+00 2.8346852769819203e-12 0.0000000000000000e+00  0.0000000000000000e+00 2.7523913220641750e-12 0.0000000000000000e+00  0.0000000000000000e+00 -3.1507529606961143e-12 0.0000000000000000e+00  0.0000000000000000e+00 -2.7882262124629344e-12 0.0000000000000000e+00  0.0000000000000000e+00 2.6657220030439588e-12 0.0000000000000000e+00  0.0000000000000000e+00 3.9066315257366511e-12 0.0000000000000000e+00  0.0000000000000000e+00 -1.4550090766535443e-12 0.0000000000000000e+00  0.0000000000000000e+00 -2.9752775169312195e-12 0.0000000000000000e+00  0.0000000000000000e+00 -1.4972723405763165e-12 0.0000000000000000e+00  0.0000000000000000e+00 1.4173665802917944e-12 0.0000000000000000e+00  0.0000000000000000e+00 1.4225439947222147e-12 0.0000000000000000e+00  0.0000000000000000e+00 2.8188058775785613e-12 0.0000000000000000e+00  0.0000000000000000e+00 -4.7290623116463744e-12 0.0000000000000000e+00  0.0000000000000000e+00 -4.9295689081835435e-12 0.0000000000000000e+00  0.0000000000000000e+00 -2.8639960266533289e-12 0.0000000000000000e+00  0.0000000000000000e+00 2.7832343469889803e-12 0.0000000000000000e+00  0.0000000000000000e+00 3.9585612917462787e-12 0.0000000000000000e+00  0.0000000000000000e+00 3.8043880652737153e-12 0.0000000000000000e+00  0.0000000000000000e+00 4.7303551688914272e-12 0.0000000000000000e+00  0.0000000000000000e+00 4.4087389728338812e-12 0.0000000000000000e+00  0.0000000000000000e+00 5.0909426312570276e-12 0.0000000000000000e+00  0.0000000000000000e+00 4.5384017807023161e-12 0.0000000000000000e+00  0.0000000000000000e+00 5.0192967922603428e-12 0.0000000000000000e+00  0.0000000000000000e+00 4.3147674045591997e-12 0.0000000000000000e+00  0.0000000000000000e+00 5.2993560075197288e-12 0.0000000000000000e+00  0.0000000000000000e+00 -4.1143326334245334e-12 0.0000000000000000e+00  0.0000000000000000e+00 -4.5848428888706768e-12 0.0000000000000000e+00  0.0000000000000000e+00 4.5083308788544170e-12 0.0000000000000000e+00  0.0000000000000000e+00 3.5638807049926162e-12 0.0000000000000000e+00  0.0000000000000000e+00 3.5702611949149602e-12 0.0000000000000000e+00  0.0000000000000000e+00 2.3815507834912805e-12 0.0000000000000000e+00  0.0000000000000000e+00 2.2630867529630954e-12 0.0000000000000000e+00  0.0000000000000000e+00 2.2353142639952915e-12 0.0000000000000000e+00  0.0000000000000000e+00 3.2938770460836419e-12 0.0000000000000000e+00  0.0000000000000000e+00 9.9118456909038304e-13 0.0000000000000000e+00  0.0000000000000000e+00 1.8476905230375423e-12 0.0000000000000000e+00  0.0000000000000000e+00 6.2728116730923030e-13 0.0000000000000000e+00  0.0000000000000000e+00 -7.1651824446892633e-13 0.0000000000000000e+00  0.0000000000000000e+00 2.7348958511045006e-12 0.0000000000000000e+00  0.0000000000000000e+00 -2.1789253375802737e-12 0.0000000000000000e+00  0.0000000000000000e+00 -3.5714522995064674e-12 0.0000000000000000e+00  0.0000000000000000e+00 -9.5506836253182056e-13 0.0000000000000000e+00  0.0000000000000000e+00 -2.2553475658434033e-12 0.0000000000000000e+00  0.0000000000000000e+00 6.3013622705872221e-13 0.0000000000000000e+00  0.0000000000000000e+00 3.5428538184098793e-12 0.0000000000000000e+00  0.0000000000000000e+00 1.1726035649123958e-12 0.0000000000000000e+00  0.0000000000000000e+00 3.5621209826312940e-12 0.0000000000000000e+00  0.0000000000000000e+00 -1.8740444603059132e-12 0.0000000000000000e+00  0.0000000000000000e+00 3.7749635920483432e-13 0.0000000000000000e+00  0.0000000000000000e+00 2.0535959956628495e-12 0.0000000000000000e+00  0.0000000000000000e+00 -2.3825563391263213e-12 0.0000000000000000e+00  0.0000000000000000e+00 -3.5625758768471456e-12 0.0000000000000000e+00  0.0000000000000000e+00 3.9912538207855347e-12 0.0000000000000000e+00  0.0000000000000000e+00 -5.1414658164676384e-12 0.0000000000000000e+00  0.0000000000000000e+00 3.4745538460797915e-13 0.0000000000000000e+00  0.0000000000000000e+00 -5.0946356540357204e-13 0.0000000000000000e+00  0.0000000000000000e+00 -3.5211505759535742e-12 0.0000000000000000e+00  0.0000000000000000e+00 -4.5026925847579378e-12 0.0000000000000000e+00  0.0000000000000000e+00 -2.2163403868340974e-12 0.0000000000000000e+00  0.0000000000000000e+00 4.6315294004975881e-12 0.0000000000000000e+00  0.0000000000000000e+00 -3.8561622095779183e-12 0.0000000000000000e+00  0.0000000000000000e+00 -2.6319341366165340e-12 0.0000000000000000e+00  0.0000000000000000e+00 4.5998783397946259e-12 0.0000000000000000e+00  0.0000000000000000e+00 4.1335160013430271e-12 0.0000000000000000e+00  0.0000000000000000e+00 3.1041921435235821e-12 0.0000000000000000e+00  0.0000000000000000e+00 1.3138901170858902e-12 0.0000000000000000e+00  0.0000000000000000e+00 -2.8877283367303425e-12 0.0000000000000000e+00  0.0000000000000000e+00 3.4848009368368770e-12 0.0000000000000000e+00  0.0000000000000000e+00 -4.3078721659189175e-12 0.0000000000000000e+00  0.0000000000000000e+00 2.6578152233184268e-12 0.0000000000000000e+00  0.0000000000000000e+00 1.1390670873937310e-12 0.0000000000000000e+00  0.0000000000000000e+00 4.9518108411586216e-12 0.0000000000000000e+00  0.0000000000000000e+00 -8.0667708096074365e-13 0.0000000000000000e+00  0.0000000000000000e+00 -4.3317002431992679e-12 0.0000000000000000e+00  0.0000000000000000e+00 -1.3115617769547533e-12 0.0000000000000000e+00  0.0000000000000000e+00 -2.1541156464657162e-12 0.0000000000000000e+00  0.0000000000000000e+00 -1.0519907577593315e-12 0.0000000000000000e+00  0.0000000000000000e+00 -1.3771144276391043e-12 0.0000000000000000e+00  0.0000000000000000e+00 -1.7943781180297337e-13 0.0000000000000000e+00  0.0000000000000000e+00 2.2796006100885634e-12 0.0000000000000000e+00  0.0000000000000000e+00 2.5549552614840057e-12 0.0000000000000000e+00  0.0000000000000000e+00 -4.9892498322132794e-12 0.0000000000000000e+00  0.0000000000000000e+00 3.8990300039717576e-12 0.0000000000000000e+00  0.0000000000000000e+00 4.7002124416410261e-12 0.0000000000000000e+00  0.0000000000000000e+00 -1.4310313631179790e-12 0.0000000000000000e+00  0.0000000000000000e+00 -1.4851937020554057e-12 0.0000000000000000e+00  0.0000000000000000e+00 -5.1802036502175580e-12 0.0000000000000000e+00  0.0000000000000000e+00 3.3864599899099330e-12 0.0000000000000000e+00  0.0000000000000000e+00 1.3987398592426981e-12 0.0000000000000000e+00  0.0000000000000000e+00 3.9278200194750197e-12 0.0000000000000000e+00  0.0000000000000000e+00 3.5909588817362249e-12 0.0000000000000000e+00  0.0000000000000000e+00 -3.2475975450709133e-12 0.0000000000000000e+00  0.0000000000000000e+00 5.0193267195113859e-12 0.0000000000000000e+00  0.0000000000000000e+00 4.3722636392628037e-12 0.0000000000000000e+00  0.0000000000000000e+00 -3.2186698642128535e-12 0.0000000000000000e+00  0.0000000000000000e+00 -5.8693324745320305e-13 0.0000000000000000e+00  0.0000000000000000e+00 -9.5474514822055737e-13 0.0000000000000000e+00  0.0000000000000000e+00 5.1689091056739698e-12 0.0000000000000000e+00  0.0000000000000000e+00 -5.2715835185519256e-12 0.0000000000000000e+00  0.0000000000000000e+00 -3.3961085356461619e-12 0.0000000000000000e+00  0.0000000000000000e+00 1.4165405881630106e-12 0.0000000000000000e+00  0.0000000000000000e+00 -1.4248483930525175e-12 0.0000000000000000e+00  0.0000000000000000e+00 -2.9334691472242989e-12 0.0000000000000000e+00  0.0000000000000000e+00 -3.4838133375524615e-12 0.0000000000000000e+00  0.0000000000000000e+00 2.5856067520021370e-12 0.0000000000000000e+00  0.0000000000000000e+00 4.3850006773066594e-13 0.0000000000000000e+00  0.0000000000000000e+00 -3.9421910854258172e-12 0.0000000000000000e+00  0.0000000000000000e+00 2.5340181566543993e-12 0.0000000000000000e+00  0.0000000000000000e+00 5.1353845990557225e-12 0.0000000000000000e+00  0.0000000000000000e+00 3.3876391236010233e-12 0.0000000000000000e+00  0.0000000000000000e+00 -2.6491183641653624e-12 0.0000000000000000e+00  0.0000000000000000e+00 1.3645030840496296e-12 0.0000000000000000e+00  0.0000000000000000e+00 -2.5590612803270909e-12 0.0000000000000000e+00  0.0000000000000000e+00 1.3269623403414256e-12 0.0000000000000000e+00  0.0000000000000000e+00 -4.6071686181486743e-12 0.0000000000000000e+00  0.0000000000000000e+00 -4.9837013198699270e-12 0.0000000000000000e+00  0.0000000000000000e+00 2.4433326005442268e-12 0.0000000000000000e+00  0.0000000000000000e+00 2.5996725599922960e-12 0.0000000000000000e+00  0.0000000000000000e+00 2.3630557423467729e-12 0.0000000000000000e+00  0.0000000000000000e+00 3.8806666427318395e-13 0.0000000000000000e+00  0.0000000000000000e+00 4.6715122078908925e-12 0.0000000000000000e+00  0.0000000000000000e+00 -2.4664603801501737e-12 0.0000000000000000e+00  0.0000000000000000e+00 -5.2679683066259446e-12 0.0000000000000000e+00  0.0000000000000000e+00 1.4024628092724340e-12 0.0000000000000000e+00  0.0000000000000000e+00 1.1746565743339385e-12 0.0000000000000000e+00  0.0000000000000000e+00 4.2736892597777261e-12 0.0000000000000000e+00  0.0000000000000000e+00 -3.8578680628873638e-12 0.0000000000000000e+00  0.0000000000000000e+00 -1.1970900417156903e-16 0.0000000000000000e+00  0.0000000000000000e+00 -2.0695891186201710e-12 0.0000000000000000e+00  0.0000000000000000e+00 8.1287202192662236e-13 0.0000000000000000e+00  0.0000000000000000e+00 2.1670861170677059e-12 0.0000000000000000e+00  0.0000000000000000e+00 -1.5438211868484315e-12 0.0000000000000000e+00  0.0000000000000000e+00 2.2498110244004684e-13 0.0000000000000000e+00  0.0000000000000000e+00 4.1477374310386097e-13 0.0000000000000000e+00  0.0000000000000000e+00 2.4459602131857928e-12 0.0000000000000000e+00  0.0000000000000000e+00 -1.2122033034923508e-12 0.0000000000000000e+00  0.0000000000000000e+00 -2.2953603004877500e-13 0.0000000000000000e+00  0.0000000000000000e+00 1.8257179353218509e-12 0.0000000000000000e+00  0.0000000000000000e+00 -2.0765920953642074e-12 0.0000000000000000e+00  0.0000000000000000e+00 -3.0031218313015262e-12 0.0000000000000000e+00  0.0000000000000000e+00 7.9714225877847814e-13 0.0000000000000000e+00  0.0000000000000000e+00 -2.3351635443747970e-12 0.0000000000000000e+00  0.0000000000000000e+00 -2.8523064423959753e-13 0.0000000000000000e+00  0.0000000000000000e+00 2.3018784557648921e-12 0.0000000000000000e+00  0.0000000000000000e+00 -1.1066379181636526e-12 0.0000000000000000e+00  0.0000000000000000e+00 1.3992785497614705e-13 0.0000000000000000e+00  0.0000000000000000e+00 1.4148407203037742e-12 0.0000000000000000e+00  0.0000000000000000e+00 3.2174967159719720e-12 0.0000000000000000e+00  0.0000000000000000e+00 1.9211858661486766e-12 0.0000000000000000e+00  0.0000000000000000e+00 2.7007668140151863e-12 0.0000000000000000e+00  0.0000000000000000e+00 1.2240185822040846e-12 0.0000000000000000e+00  0.0000000000000000e+00 -1.0232845385589891e-12 0.0000000000000000e+00  0.0000000000000000e+00 2.1112837647731291e-12 0.0000000000000000e+00  0.0000000000000000e+00 -1.1329738990813978e-12 0.0000000000000000e+00  0.0000000000000000e+00 1.9382683410439600e-13 0.0000000000000000e+00  0.0000000000000000e+00 -2.6560614864073133e-12 0.0000000000000000e+00  0.0000000000000000e+00 9.8607299461225700e-13 0.0000000000000000e+00  0.0000000000000000e+00 -1.0290545125600588e-12 0.0000000000000000e+00  0.0000000000000000e+00 -3.3116538332031196e-12 0.0000000000000000e+00  0.0000000000000000e+00 -3.4880091381486757e-12 0.0000000000000000e+00  0.0000000000000000e+00 -3.0749831465057190e-12 0.0000000000000000e+00  0.0000000000000000e+00 2.6574680672063294e-12 0.0000000000000000e+00  0.0000000000000000e+00 -2.9910850909320749e-12 0.0000000000000000e+00  0.0000000000000000e+00 3.5313198558579492e-12 0.0000000000000000e+00  0.0000000000000000e+00 -1.3346536438594488e-12 0.0000000000000000e+00  0.0000000000000000e+00 1.7424722938209417e-12 0.0000000000000000e+00  0.0000000000000000e+00 1.5743709247130160e-12 0.0000000000000000e+00  0.0000000000000000e+00 8.5039480928420059e-13 0.0000000000000000e+00  </DataArray> 
</PointData> 
</Piece>
</UnstructuredGrid>
</VTKFile>