<?xml version="1.0"?>
<VTKFile type="UnstructuredGrid"  version="0.1"  >
<UnstructuredGrid>
<Piece  NumberOfPoints="201" NumberOfCells="657">
<Points>
<DataArray  type="Float64"  NumberOfComponents="3"  format="ascii">0.00531375767795599 -0.004399859190351046 3620.891230403673  -0.0003762550089545202 0.0008016984738346739 -3620.891296769254  1159.355960273872 0.0006455622565610833 -3443.670386215069  2205.221231873897 -0.004519632703378298 -2929.368439523867  3035.227678997119 -0.0006868905691073348 -2128.301600943139  3568.132352560172 -0.0009198658262129818 -1118.916598154279  3751.764577887929 0.001523915362390864 0.009170461980095046  3568.136002479264 -0.002882268208543679 1118.92602402002  3035.238051740526 0.0002785856309757627 2128.309128417447  2205.233159454421 0.001227285185690627 2929.360964299605  1159.354168330163 0.002070384689059756 3443.667449094192  1468.833867541062 -186.700605931347 -3148.083056906402  1459.257425804765 145.0258201209264 3226.287486023887  3571.175442701114 -166.2049028761614 -536.7766158341  2571.237250327039 -181.3575389105662 2414.374048965086  3248.176044319198 168.1028371287308 1522.542508809079  3234.670581872948 168.1010227399263 -1549.085450770812  1640.118234769601 167.1118612864044 -3106.639867154453  565.1479663419738 -167.1134562983545 3443.729529333736  2554.552059775866 -167.1122292720255 -2465.439401640432  1778.270058173229 -327.8096101191745 -2548.005882737497  2642.178050454941 -321.3050341338592 -1754.899737200425  1811.854729008777 -459.1538212135025 -1685.679092501769  2552.862875606871 -430.9502875219778 -830.1223933993804  1601.994247804942 -546.4909507662871 -705.1840305571656  2280.946561656959 -490.5428900916553 178.3805897428886  1198.194100142967 -583.7913363508976 321.8466649731159  1737.858931441247 -507.3212222290259 1220.922692032888  626.0515955233686 -568.362379441808 1298.361516981673  1112.109482638512 -463.773777859696 2145.010864478057  -43.20910649238279 -498.1161256553538 2149.203568288469  2664.933582838397 -398.6678097235985 1030.280501752985  2554.562238691149 167.1143439385719 2465.442724281519  2588.521965240855 323.4273105201316 1815.058402971024  3134.754229981092 309.9342298147541 821.5079399123701  415.9754114310041 -370.2437678898204 2874.554256955758  1523.274406003347 -324.6972593047001 2710.328135334224  1778.072044058636 309.1220491196057 2626.797427063827  1713.473219196427 452.0657296714622 1840.058986211465  3578.016121982858 -162.1547477603465 536.7097248612876  3154.879952490747 -335.0083504451959 62.15913014587954  3255.377332003598 -168.2538206966656 -1507.581636642397  565.1522798295781 167.1101670158753 -3443.73337766943  2529.118398468755 162.9189236754409 -2499.216511526474  2568.696771756296 321.6892859999926 -1851.47506018118  777.434574210448 -551.4365518456304 -1462.286015444105  -543.919606837151 -575.1006150075639 1229.148651272231  758.645087561643 -336.2092972676687 -2951.395635427298  3113.343021611247 313.6280999314589 -848.9607037391473  2328.355210299315 452.9271858375204 -1021.933656771265  1653.228906773485 440.8222068345865 -1979.569267963996  1305.34166699315 548.7938358098774 -1101.836306254012  576.6659814706701 515.3812861252622 -1926.398894119823  168.8212533745669 594.0382672562342 -999.8883842230671  -591.1672166918313 530.2349772180484 -1778.278394579112  -975.5188861456121 583.4369282512531 -754.0874555932296  -1719.106902172847 498.426858079934 -1362.954797211303  -187.6322103256686 617.7980878718619 66.78038010597285  -1198.442366916675 -478.8810530127603 1981.743249393208  -1655.463855942086 -529.4992783067835 981.1218990685937  -2018.495184868852 517.9369394655067 -368.325417908904  -2666.128264036123 405.2773451532078 -934.6517227969355  -2839.955537626322 404.3822213784541 83.63689803651862  -3331.145802700877 266.8766932105999 -584.1973388768581  -3376.784024468652 253.3221503997482 545.0826577682354  -2959.311127418739 252.9592947089033 -1663.522437542664  -2730.957017780232 374.2245828576609 1173.161768507318  -3523.982087887411 110.649773826985 -1060.868316527503  -3119.440937700064 208.2605399408651 1601.631365423067  -2999.651689372175 71.03326039958428 -2134.798007470199  -3368.42315279586 -80.36526790403143 -1523.710517546453  -2320.731191456403 313.8717546618377 2174.208553409299  -518.2480419208358 -256.5857054928854 3257.438889995881  -2260.669039504971 -409.6212054631841 1616.443794501877  -2695.508773991195 -108.8632945798871 -2436.874150921977  -2912.279466843694 -255.475055747382 -1726.487021044121  -3604.845792987589 70.22673770583469 915.5373050515659  -1254.36469882317 412.8835976982847 -2411.551780878291  -2566.720373363411 134.0549825076808 2522.00212432221  806.963199681771 417.2018638042366 2559.669303970041  -3473.42388986676 -209.2936202903476 -613.7122952943014  -2183.863430046987 43.48404995243849 -2933.263396602996  -1701.48683177088 238.8498963139988 2909.453820157878  -2098.661814370868 -274.8210376056126 -2535.251453347231  -2197.650729552202 -409.0747846021478 -1699.976470753448  -1852.163575274512 460.5890174635568 1630.546740739121  -945.8179505391258 -597.4289921309489 233.0260949367934  -1791.848598092087 40.2243383035032 3172.539833794915  -2647.645030717776 -58.11198456298034 2542.837617926298  -1268.496728791755 -410.2403679846624 -2420.083908837179  -1272.807970347837 -522.8299776975275 -1498.944214802383  -1092.990516252921 -259.8583503053786 -3112.983742003944  1902.645152164701 533.1372464015982 -102.1674884351002  -2558.54670048967 -439.329630629042 641.9498903032961  -3080.456081319671 -296.8106837505971 1123.199454557012  672.0237227380039 536.9481643880882 1679.815905754504  -242.5803519690993 484.341329597813 2242.660240723235  -84.02876981951795 365.0842099554032 2923.618110446461  -1016.346040687481 154.2927564125538 3366.807497472367  -1695.050430801298 -335.0447745917462 2568.555119437739  884.7512009044063 407.8723095352113 -2587.019061806565  -2103.25600740359 -494.4692153252777 -790.3526509457648  -277.8473581391665 312.9645757053591 -3113.052070770668  -615.6567463944168 134.2149323589605 -3484.598198457073  -417.5670179613028 577.9724763550136 1228.961234991256  -792.6804693618758 -95.00310443339957 3495.322584581073  -271.1624349007822 -507.1616751511924 -2059.246613599275  -1712.733010830619 -152.6662150590925 3095.526978826863  -2640.497546985705 -245.7547520730247 2133.756867444716  -3287.157084168672 -118.1422553613098 1602.920935440431  -3596.653125924357 -153.3636474520385 508.0663670520033  -3735.619705095768 -19.94867309457674 -314.5328717889283  -1441.014731401477 265.9276086141854 -2959.751752463051  -2185.600811566296 294.1401012844066 -2388.45867967379  -319.1322789342373 -582.360117963337 -1184.5720684244  -127.6444327323055 457.3535168277756 -2437.326075639766  1496.396525939482 544.0456738951773 945.4055534315607  3233.590074787146 -160.819521292657 1577.371808165641  187.4692257662466 -175.3712398193395 -3468.046906230446  593.1958114044625 -603.4655913786783 -557.5801962860504  -1142.574924840461 395.4529286435666 2558.823824154104  3586.433913184159 155.8336358127882 -548.2206361059824  2397.394979570903 448.8169694772091 931.346629013351  2828.09433747781 406.8275714618403 -41.3817932588255  -2864.694617863262 -367.9672510225246 -915.4966799765184  -1243.359355179866 581.8322781521053 281.826981013368  -2085.844545205169 501.9048178879174 662.2772816176099  -203.5069238904799 -378.5065962180935 -2859.005446632842  -874.2751695085508 -69.11230364703924 -3497.969807187507  -1843.089459115551 -110.9192906396334 -3086.508743869883  866.9771805222115 601.1547342147945 -184.9488626400078  101.5951459450779 -614.6319095741042 402.3066787759249  2071.923375361819 -391.1657503111502 1969.909950868701  3592.779968380287 157.8225195822051 486.5762069720855  1641.048783833205 -165.9063607791348 3108.385422568819  -3173.472077761383 -330.009219937177 89.40557287492041  -671.6229419919316 -408.4462000033374 2643.075000314174  1828.058836404124 299.6954552605249 -2632.20570362404  -3214.458118254711 49.36927591981448 1844.751690017052  842.3621771760354 -460.9205132177086 -2276.484318478198  919.0188272519025 297.3438957964099 3049.980955270536  534.6175454741268 598.4617681246481 760.8527142758746  -2333.629908538649 388.1079746949365 -1699.460937695683  3137.798491031696 -298.4775461398658 -946.3028362041887  -57.41307831909685 161.0724474500294 3495.906446671899  2842.051392315705 -290.4912889996019 1644.235291965529  -3642.717344966082 147.6068412098153 -82.35340658541303  -1939.652768390751 -529.7689462141204 34.92378146599088  -1184.584617719187 -578.1234248127765 -599.9592731326748  3365.954612898375 273.5620602369376 -25.19137231839251  -837.4589961643574 305.0621308476105 3045.80715743297  1042.100287953097 277.0433008496931 -3078.373464851918  -1264.865875781818 45.49787402149126 -3398.531012495009  -1371.992006964585 541.438877416212 1150.284018852167  3191.21229747064 -277.6149100870268 995.7696848978038  -255.6234046491838 -614.1242961110046 -363.5272770620772  -2406.127318989097 161.0050643944568 -2613.962325276948  -1644.421178682665 136.8302589994909 -3154.7788672049  -1049.310418041138 497.9246927529738 1897.908847221576  -2638.45529111749 -438.8185829810889 -202.5449369548572  -0.003928303059908821 0.0001987099432664811 0.002681979479615642  -1196.666757275029 -242.0876379602203 100.3250899883201  1809.443964174856 94.4237170296453 -16.55588998646162  -720.8697727705251 254.4521186985637 797.9044378558497  1348.74205777584 -180.3970729333123 725.8946271324097  -878.676569742276 26.40880777448936 -1612.631563314006  -1861.02539463286 48.05891392743573 1.334954721050252  355.5660530692667 287.8082559776475 -692.8561531969444  1256.963039026846 -141.854551945455 -1085.000114247112  -977.7232903422957 -26.95527489638369 1564.096662998008  937.5781013698127 214.1848580666737 1261.174847536635  -346.2250477901599 -244.416290704558 -1369.983144277391  309.699846433602 -352.9356338606559 6.701769163360182  746
[...]
<PointData  Vectors="Centrifugal"> 
<DataArray  type="Float64"  Name="Centrifugal"  NumberOfComponents="3" format="ascii">1.2763557609995929e-10 0.0000000000000000e+00 8.7544006844230383e-05  -9.0359675256999480e-12 0.0000000000000000e+00 -8.7544008438733179e-05  2.8030281032177043e-05 0.0000000000000000e+00 -8.3259254616587414e-05  5.3316646375224282e-05 0.0000000000000000e+00 -7.0824730992668358e-05  7.3384093225340426e-05 0.0000000000000000e+00 -5.1456959305715272e-05  8.6268372904577248e-05 0.0000000000000000e+00 -2.7052578020178170e-05  9.0708132171789179e-05 0.0000000000000000e+00 2.2027129278145539e-10  8.6268460575344676e-05 0.0000000000000000e+00 2.7052804425267193e-05  7.3384342373044589e-05 0.0000000000000000e+00 5.1457140112144047e-05  5.3316932869598242e-05 0.0000000000000000e+00 7.0824551439564013e-05  2.8030237991030181e-05 0.0000000000000000e+00 8.3259184068209578e-05  3.5512664899608965e-05 0.0000000000000000e+00 -7.6112687835923045e-05  3.5281132202950860e-05 0.0000000000000000e+00 7.8003476866760372e-05  8.6341935994271949e-05 0.0000000000000000e+00 -1.2977901752525242e-05  6.2165970893267054e-05 0.0000000000000000e+00 5.8373459523904773e-05  7.8532631839484826e-05 0.0000000000000000e+00 3.6811227715552154e-05  7.8206104272219036e-05 0.0000000000000000e+00 -3.7452970933470898e-05  3.9653886641617014e-05 0.0000000000000000e+00 -7.5110698218785541e-05  1.3663839880018548e-05 0.0000000000000000e+00 8.3260675218699271e-05  6.1762569050984796e-05 0.0000000000000000e+00 -5.9608092579420200e-05  4.2994030235046206e-05 0.0000000000000000e+00 -6.1604319465684024e-05  6.3881119717203633e-05 0.0000000000000000e+00 -4.2429025183030367e-05  4.3805998709307397e-05 0.0000000000000000e+00 -4.0755425870213055e-05  6.1721680722467056e-05 0.0000000000000000e+00 -2.0070247298123669e-05  3.8732092708755123e-05 0.0000000000000000e+00 -1.7049546280565091e-05  5.5147425783365697e-05 0.0000000000000000e+00 4.3127870173500959e-06  2.8969240000212270e-05 0.0000000000000000e+00 7.7814278439827819e-06  4.2016958799935977e-05 0.0000000000000000e+00 2.9518793031171419e-05  1.5136313064592683e-05 0.0000000000000000e+00 3.1391057064469122e-05  2.6887953221687650e-05 0.0000000000000000e+00 5.1860897146518155e-05  -1.0446859054886712e-06 0.0000000000000000e+00 5.1962256957566148e-05  6.4431271405259060e-05 0.0000000000000000e+00 2.4909562258833342e-05  6.1762813542268921e-05 0.0000000000000000e+00 5.9608172388077875e-05  6.2583850464020409e-05 0.0000000000000000e+00 4.3883508144878050e-05  7.5790356013197158e-05 0.0000000000000000e+00 1.9861978752029007e-05  1.0057223055231900e-05 0.0000000000000000e+00 6.9499421337927038e-05  3.6828884175962108e-05 0.0000000000000000e+00 6.5528859542108970e-05  4.2989244325331401e-05 0.0000000000000000e+00 6.3509302449440809e-05  4.1427386291461521e-05 0.0000000000000000e+00 4.4487938454396573e-05  8.6507325621210975e-05 0.0000000000000000e+00 1.2976284288038598e-05  7.6276937365444487e-05 0.0000000000000000e+00 1.5028497239124708e-06  7.8706739452846585e-05 0.0000000000000000e+00 -3.6449513317237074e-05  1.3663943488759094e-05 0.0000000000000000e+00 -8.3260767654984785e-05  6.1147648710743261e-05 0.0000000000000000e+00 -6.0424737836879616e-05  6.2104530343418243e-05 0.0000000000000000e+00 -4.4763971962626084e-05  1.8796364597007554e-05 0.0000000000000000e+00 -3.5354335414111708e-05  -1.3150572276074283e-05 0.0000000000000000e+00 2.9717666390429177e-05  1.8342099703103776e-05 0.0000000000000000e+00 -7.1357257475242666e-05  7.5272686228946382e-05 0.0000000000000000e+00 -2.0525717704004816e-05  5.6293655208295739e-05 0.0000000000000000e+00 -2.4707753279260500e-05  3.9970836137873042e-05 0.0000000000000000e+00 -4.7860944683963961e-05  3.1559797763429793e-05 0.0000000000000000e+00 -2.6639583933435399e-05  1.3942300391231303e-05 0.0000000000000000e+00 -4.6575406071994220e-05  4.0816622441685308e-06 0.0000000000000000e+00 -2.4174737890527237e-05  -1.4292900978688894e-05 0.0000000000000000e+00 -4.2994226777621322e-05  -2.3585528020060606e-05 0.0000000000000000e+00 -1.8231902317224609e-05  -4.1563585242541097e-05 0.0000000000000000e+00 -3.2952767926004503e-05  -4.5364619333095469e-06 0.0000000000000000e+00 1.6145775171783674e-06  -2.8975258751606980e-05 0.0000000000000000e+00 4.7913498395826081e-05  -4.0024854163908605e-05 0.0000000000000000e+00 2.3721020290392049e-05  -4.8802019328093628e-05 0.0000000000000000e+00 -8.9051677749488549e-06  -6.4460155308180761e-05 0.0000000000000000e+00 -2.2597501354005888e-05  -6.8662854196208830e-05 0.0000000000000000e+00 2.0221278892775599e-06  -8.0538613490621877e-05 0.0000000000000000e+00 -1.4124411617095601e-05  -8.1642032815539364e-05 0.0000000000000000e+00 1.3178718947761350e-05  -7.1548601801945557e-05 0.0000000000000000e+00 -4.0219759770995821e-05  -6.6027556644257282e-05 0.0000000000000000e+00 2.8364071171546261e-05  -8.5200927494000951e-05 0.0000000000000000e+00 -2.5649113930414041e-05  -7.5420140356617123e-05 0.0000000000000000e+00 3.8723393944934137e-05  -7.2523954779358992e-05 0.0000000000000000e+00 -5.1614022485648256e-05  -8.1439910870253237e-05 0.0000000000000000e+00 -3.6839470788312093e-05  -5.6109355950170808e-05 0.0000000000000000e+00 5.2566848823605782e-05  -1.2529916586613322e-05 0.0000000000000000e+00 7.8756625087710573e-05  -5.4657187768180346e-05 0.0000000000000000e+00 3.9081499051083384e-05  -6.5170549538597802e-05 0.0000000000000000e+00 -5.8917458617251121e-05  -7.0411494933048633e-05 0.0000000000000000e+00 -4.1742084004167915e-05  -8.7156009920367212e-05 0.0000000000000000e+00 2.2135378767700395e-05  -3.0327324993597815e-05 0.0000000000000000e+00 -5.8305187436522756e-05  -6.2056771121546733e-05 0.0000000000000000e+00 6.0975637960870984e-05  1.9510303278804689e-05 0.0000000000000000e+00 6.1886293022379605e-05  -8.3978546211236290e-05 0.0000000000000000e+00 -1.4838009777275849e-05  -5.2800267300369362e-05 0.0000000000000000e+00 -7.0918898949169770e-05  -4.1137617275252264e-05 0.0000000000000000e+00 7.0343228239680614e-05  -5.0740291092830191e-05 0.0000000000000000e+00 -6.1295956689570692e-05  -5.3133565487073022e-05 0.0000000000000000e+00 -4.1101106849546028e-05  -4.4780562987434078e-05 0.0000000000000000e+00 3.9422465695856501e-05  -2.2867434086832926e-05 0.0000000000000000e+00 5.6339742092733177e-06  -4.3322345736720242e-05 0.0000000000000000e+00 7.6704000048108466e-05  -6.4013327236523372e-05 0.0000000000000000e+00 6.1479391329111624e-05  -3.0669001730370242e-05 0.0000000000000000e+00 -5.8511472553913700e-05  -3.0773220848675087e-05 0.0000000000000000e+00 -3.6240641938306743e-05  -2.6425722108176692e-05 0.0000000000000000e+00 -7.5264063200765317e-05  4.6001059575445911e-05 0.0000000000000000e+00 -2.4701486309611697e-06  -6.1859098378005305e-05 0.0000000000000000e+00 1.5520714475570497e-05  -7.4477569379139335e-05 0.0000000000000000e+00 2.7156115695198632e-05  1.6247802833990045e-05 0.0000000000000000e+00 4.0613654270350001e-05  -5.8649691016712560e-06 0.0000000000000000e+00 5.4221803488729159e-05  -2.0316007356833612e-06 0.0000000000000000e+00 7.0685662681959876e-05  -2.4572660875714408e-05 0.0000000000000000e+00 8.1400896232032978e-05  -4.0981990709028255e-05 0.0000000000000000e+00 6.2101145192972507e-05  2.1391018840562417e-05 0.0000000000000000e+00 -6.2547541736491478e-05  -5.0851324356635814e-05 0.0000000000000000e+00 -1.9108710593524022e-05  -6.7176390754471828e-06 0.0000000000000000e+00 -7.5265706801413003e-05  -1.4885011479637496e-05 0.0000000000000000e+00 -8.4248778854570529e-05  -1.0095692870721208e-05 0.0000000000000000e+00 2.9713134159386696e-05  -1.9164996903996858e-05 0.0000000000000000e+00 8.4508071301155733e-05  -6.5560102597291781e-06 0.0000000000000000e+00 -4.9787326015197344e-05  -4.1409528108802087e-05 0.0000000000000000e+00 7.4842017218355159e-05  -6.3840501947879093e-05 0.0000000000000000e+00 5.1588839668865262e-05  -7.9475101279403857e-05 0.0000000000000000e+00 3.8754577220242472e-05  -8.6957925103587987e-05 0.0000000000000000e+00 1.2283760643896574e-05  -9.0317791677546567e-05 0.0000000000000000e+00 -7.6046106219315451e-06  -3.4840062143574010e-05 0.0000000000000000e+00 -7.1559299379210438e-05  -5.2842250907778962e-05 0.0000000000000000e+00 -5.7746875954792444e-05  -7.7157943341532747e-06 0.0000000000000000e+00 -2.8639917947020169e-05  -3.0861150136548468e-06 0.0000000000000000e+00 -5.8928335342138866e-05  3.6179012461001889e-05 0.0000000000000000e+00 2.2857488460536997e-05  7.8179980101262666e-05 0.0000000000000000e+00 3.8136860578272207e-05  4.5325282464206598e-06 0.0000000000000000e+00 -8.3848606230238048e-05  1.4341941656165685e-05 0.0000000000000000e+00 -1.3480859240284676e-05  -2.7624537750726068e-05 0.0000000000000000e+00 6.1865855170407108e-05  8.6710847819232776e-05 0.0000000000000000e+00 -1.3254589256433123e-05  5.7962860421302490e-05 0.0000000000000000e+00 2.2517589079963423e-05  6.8376078603538348e-05 0.0000000000000000e+00 -1.0005071780212467e-06  -6.9260990374447149e-05 0.0000000000000000e+00 -2.2134383777825469e-05  -3.0061218985666903e-05 0.0000000000000000e+00 6.8138542351729415e-06  -5.0430358452443858e-05 0.0000000000000000e+00 1.6012173479072201e-05  -4.9202753990660842e-06 0.0000000000000000e+00 -6.9123488958853423e-05  -2.1137748131061134e-05 0.0000000000000000e+00 -8.4572074847647695e-05  -4.4561216581369825e-05 0.0000000000000000e+00 -7.4623982016556797e-05  2.0961267458247181e-05 0.0000000000000000e+00 -4.4715892172386107e-06  2.4563081205102085e-06 0.0000000000000000e+00 9.7267427447724106e-06  5.0093805009846621e-05 0.0000000000000000e+00 4.7627416552311101e-05  8.6864278960821633e-05 0.0000000000000000e+00 1.1764182085207443e-05  3.9676383815256830e-05 0.0000000000000000e+00 7.5152901877244518e-05  -7.6726450677558637e-05 0.0000000000000000e+00 2.1615998071990994e-06  -1.6238122967316010e-05 0.0000000000000000e+00 6.3902833083150667e-05  4.4197799420563571e-05 0.0000000000000000e+00 -6.3640062085310573e-05  -7.7717429063315518e-05 0.0000000000000000e+00 4.4601436133149447e-05  2.0366155931082541e-05 0.0000000000000000e+00 -5.5039590591377472e-05  2.2219531542659296e-05 0.0000000000000000e+00 7.3740809976541495e-05  1.2925670714960521e-05 0.0000000000000000e+00 1.8395467205423284e-05  -5.6421198651890192e-05 0.0000000000000000e+00 -4.1088645945227513e-05  7.5863960738196533e-05 0.0000000000000000e+00 -2.2879204690057671e-05  -1.3881021155688803e-06 0.0000000000000000e+00 8.4522181599180248e-05  6.8713551923719853e-05 0.0000000000000000e+00 3.9753441857262154e-05  -8.8071639705157380e-05 0.0000000000000000e+00 -1.9910979551795403e-06  -4.6895809508466367e-05 0.0000000000000000e+00 8.4436797642857358e-07  -2.8640198063003993e-05 0.0000000000000000e+00 -1.4505478860690937e-05  8.1380199091062724e-05 0.0000000000000000e+00 -6.0906397358281805e-07  -2.0247620958491950e-05 0.0000000000000000e+00 7.3639896750324514e-05  2.5195326433538852e-05 0.0000000000000000e+00 -7.4427271808909674e-05  -3.0581240543769769e-05 0.0000000000000000e+00 -8.2167896032333510e-05  -3.3171231707542982e-05 0.0000000000000000e+00 2.7810925289732654e-05  7.7155375114255591e-05 0.0000000000000000e+00 2.4075187673430333e-05  -6.1803126239841664e-06 0.0000000000000000e+00 -8.7891566950753230e-06  -5.8174036343643321e-05 0.0000000000000000e+00 -6.3198999550946692e-05  -3.9757921044185533e-05 0.0000000000000000e+00 -7.6274578531929796e-05  -2.5369628659948003e-05 0.0000000000000000e+00 4.5886592751010487e-05  -6.3791085490117209e-05 0.0000000000000000e+00 -4.8970209018936682e-06  -9.4356173921341870e-11 0.0000000000000000e+00 6.4420540359633777e-11  -2.8932308539300547e-05 0.0000000000000000e+00 2.4256031637945350e-06  4.3747687400754421e-05 0.0000000000000000e+00 -4.0027910935475368e-07  -1.7428766385101810e-05 0.0000000000000000e+00 1.9291281964418237e-05  3.2609099891755680e-05 0.0000000000000000e+00 1.7550271888086287e-05  -2.1244132874030259e-05 0.0000000000000000e+00 -3.8989303878364064e-05  -4.4994794324405963e-05 0.0000000000000000e+00 3.2275643012408357e-08  8.5966675310313498e-06 0.0000000000000000e+00 -1.6751482731199706e-05  3.0390122024164023e-05 0.0000000000000000e+00 -2.6232523862562286e-05  -2.3638827226455494e-05 0.0000000000000000e+00 3.7815854142000465e-05  2.2668218248442129e-05 0.0000000000000000e+00 3.0491976824924547e-05  -8.3708271121181751e-06 0.0000000000000000e+00 -3.3122680525624065e-05  7.4877401246203557e-06 0.0000000000000000e+00 1.6203122208965199e-07  1.8048060767782076e-05 0.0000000000000000e+00 -4.3409523973005376e-05  -7.1289612582540774e-06 0.0000000000000000e+00 3.2916578714743351e-05  1.5822637457381692e-05 0.0000000000000000e+00 4.6360076696746762e-05  -3.0615888365197198e-05 0.0000000000000000e+00 -1.6391807709038467e-05  -4.5067282222116825e-05 0.0000000000000000e+00 -2.4411555966999181e-05  4.5889744480226470e-05 0.0000000000000000e+00 3.1153722641274760e-05  -6.1242583074606322e-06 0.0000000000000000e+00 4.9179065045975975e-05  9.4208524104462625e-06 0.0000000000000000e+00 1.2552964388479033e-05  3.8901797680524213e-05 0.0000000000000000e+00 -2.6400011439499573e-05  3.8897430021261340e-05 0.0000000000000000e+00 2.4177731608813200e-06  -4.4680644701815214e-05 0.0000000000000000e+00 2.9605884269849091e-05  5.4915685013933345e-05 0.0000000000000000e+00 -4.6825158560952416e-06  -1.0963793182430496e-05 0.0000000000000000e+00 -4.3554797748730298e-05  -5.2817336744212829e-05 0.0000000000000000e+00 1.9011410966408051e-05  5.1629754932408318e-05 0.0000000000000000e+00 -2.8767281617220118e-05  3.8246047887245092e-05 0.0000000000000000e+00 -7.2632970118528434e-06  -4.9144430511720242e-05 0.0000000000000000e+00 -2.9416194627600570e-05  1.1361397384346866e-05 0.0000000000000000e+00 -5.2929332065195322e-05  -1.7708483526723957e-05 0.0000000000000000e+00 -1.4651765664245702e-05  -1.7163506619136350e-05 0.0000000000000000e+00 1.3648186369177896e-05  2.0415287818090721e-05 0.0000000000000000e+00 2.6947238327025471e-05  -4.4617047790395878e-05 0.0000000000000000e+00 1.1207217958538753e-05  1.7218283012464531e-05 0.0000000000000000e+00 -2.7723904679532095e-05  -1.2316371854696561e-05 0.0000000000000000e+00 -6.5295749077575819e-06  -2.9835475538437087e-05 0.0000000000000000e+00 -4.9037343127315032e-05  5.1470770509358208e-05 0.0000000000000000e+00 2.2194192824380599e-05  6.4842272980327508e-06 0.0000000000000000e+00 7.0148536701781194e-06  1.9278182397863097e-05 0.0000000000000000e+00 -1.5440307215737680e-05  </DataArray> 
</PointData> 
</Piece>
</UnstructuredGrid>
</VTKFile>