<?xml version="1.0"?>
<VTKFile type="UnstructuredGrid"  version="0.1"  >
<UnstructuredGrid>
<Piece  NumberOfPoints="201" NumberOfCells="657">
<Points>
<DataArray  type="Float64"  NumberOfComponents="3"  format="ascii">-17.82086746683089 2.525940214968596 447.9225607465686  -19.34708337728659 -2.14382629105364 -451.2289534193288  3911.440963924507 2.861398343757088 -458.9560428553769  6727.295575581951 -0.546893392439711 -465.3068680431136  8379.027016074861 -3.157842761985835 -409.7359941094033  9235.180287191746 -2.431491870911469 -231.543502565566  9502.914461421937 -1.443514747940766 17.76164529211206  9235.766741349638 -1.944058485039541 266.3934670413747  8378.462371374395 -2.592930857532815 442.9494525376579  6730.381751596094 1.371644561844364 495.497921156874  3909.316459000567 2.187177734877599 479.0157723823172  4746.408633964255 -918.9042555928683 -444.4341835901003  4772.951980264003 713.2556305342342 472.7767680744661  9161.596077100496 -1038.766910751089 -102.3182768243301  7408.509953301294 -1005.402820120804 448.8993691082085  8642.392718889698 1011.691465038692 335.037211648535  8624.366662655821 1012.134134831215 -305.2467717925069  5232.789169493989 838.6707316793483 -449.364947244161  1950.288782711461 -762.7750448490397 444.6470884023632  7386.881925365365 -926.8462726999958 -422.7751266741492  5401.302292216413 -1662.035995167211 -383.138226977049  7346.305609223951 -1792.792082590348 -305.00743457575  5253.981317258095 -2340.088110155875 -256.2991820753355  6926.72363014941 -2372.425292277034 -135.1629615020814  4570.068099037579 -2730.640791554845 -99.57768854331266  6234.94743861508 -2619.913655506301 45.25445378434807  3453.269196829645 -2824.536340842081 56.65445973316824  4976.476219425957 -2568.128587073686 206.2526483409808  1870.43494206294 -2657.375916053294 186.7737327040778  3415.549876879254 -2221.323403064152 315.2037869663358  -133.3691860449123 -2292.931787988258 288.6487625533978  7225.633898697107 -2225.015137800327 205.0074094514223  7396.311453765606 928.4564181950731 457.2910386113906  7238.121675522786 1795.916973589689 346.2511312765009  8240.229767956436 1833.227617181642 183.4297600400837  1368.919079937656 -1704.865886288606 381.5783378858018  4774.229641050813 -1603.45480482365 410.8483299446351  5438.513206184357 1570.961867541395 418.9011408201288  5033.945368151274 2279.532082956615 297.7384124648812  9178.090683468683 -1014.466904002498 135.7649156017853  8243.208400272657 -1977.071357482765 29.5356531412188  8675.7414842913 -1015.701273373143 -295.5266207113606  1928.044142296299 767.7589557051145 -433.9732056546567  7349.217714103871 898.5056932538976 -427.5289062133111  7192.067893018087 1783.340859001149 -320.2263561385129  2332.693322206556 -2592.939020064647 -200.2243710786142  -1647.731125168471 -2681.749330055916 166.5178757016313  2501.187901850497 -1565.884020701471 -385.3486516591795  8198.183810759836 1849.083915482143 -155.1620450277453  6430.58907629829 2436.978132728522 -165.1185692079156  4912.282549793883 2207.88488664702 -292.1600896114147  3807.136408743705 2672.904428896348 -155.6293780935389  1775.007882000083 2398.649418478181 -260.4951347181644  488.5995921956051 2756.606277255941 -137.9835433280231  -1826.220523584441 2471.787351481605 -250.8095009059437  -2873.82662208903 2788.382348940429 -117.3274538137962  -4956.854164783172 2520.615433100403 -227.7990306051097  -572.0661379742816 2869.10199976651 7.440590972510642  -3648.924631761122 -2319.119083383659 280.7111713151855  -4727.138458542402 -2670.698231611388 145.2665918368212  -5612.64608865789 2695.775459565235 -73.53484312800695  -7204.630131954325 2264.07557048286 -189.2035927775434  -7520.626747332962 2303.320634560303 0.1816143165168704  -8643.94775766868 1619.954023117703 -140.9541729744069  -8730.808504697132 1545.978036176862 97.92719681041959  -8032.909976291822 1470.713835260477 -343.0168277420506  -7390.69471130172 2108.121322299228 206.2935488512734  -9112.465997658799 688.2472617841321 -251.3914398322989  -8371.943582123806 1236.352851386142 306.8386201309596  -8287.798293840407 415.8484128961385 -440.8183766039679  -8887.998315366976 -491.7391748246401 -344.3511176279978  -6703.009869951389 1691.06349948903 358.0531557823691  -1778.863440979546 -1180.806193810263 411.0118641603294  -6374.517257304344 -2187.591624618413 260.949049840064  -7706.420860229562 -616.8449030222802 -467.5150455995505  -7946.446330907946 -1477.753572285813 -350.8729031281742  -9255.21409282206 440.7413814333303 188.4454493935618  -3891.861038007518 2003.823819458441 -359.1819914482231  -7432.516875699144 746.8243538825679 440.0149111581622  2570.380504159954 1951.085027743206 355.6777933252541  -8932.448289624457 -1293.234279599881 -152.4443452194773  -6655.229872775511 232.826734243839 -496.5789222326482  -5323.572478221119 1200.035421138691 425.2869074795847  -6248.851551162815 -1445.50473561577 -428.7098095212067  -6239.565530000271 -2170.614803088251 -301.3137716948122  -5344.410029691355 2358.798636341795 249.3720547454113  -2765.036593835953 -2851.745072483356 27.02334645880173  -5699.880103616316 209.9693469459222 465.678085688582  -7645.602139272853 -328.9888216503821 446.7472310239452  -3930.036607175734 -1995.907240149319 -361.8866957819166  -3768.31927598744 -2551.248008472596 -233.6827913432714  -3602.071386396444 -1235.749688299861 -437.2308015750558  5335.383786206385 2734.05495391454 -3.27253041191513  -6923.744826107009 -2419.4396264742 100.4684518079276  -8177.419913853155 -1745.756138130792 210.4114558239177  2040.92571387474 2514.559332561053 238.4604679773821  -781.9193598313044 2230.878627891047 297.4053726583411  -278.8536860616551 1670.194185678297 377.1754960761321  -3421.7195616486 730.3150676770435 445.7996857071305  -5170.872186820235 -1691.269529126581 382.0838718068289  2813.683614632977 1920.726815278136 -348.194074870678  -5839.999377499426 -2597.530059594552 -146.746225968058  -923.7899431544752 1430.120572486148 -401.9431154522384  -2125.72287808745 619.7739199843705 -451.9003816680454  -1271.663889171958 2685.452094710003 166.6510515195554  -2730.189294834418 -444.2378690681875 445.9881503392727  -843.6573091612966 -2339.699327474458 -280.33406453075  -5422.643620156346 -769.0771922066252 453.8181704873161  -7462.825785475068 -1374.992816914599 371.4409434786307  -8735.476525149452 -716.6865599593816 323.9346412629693  -9177.419777877902 -961.9423610412946 97.2513007704796  -9457.473332305435 -126.9379555572997 -91.08197257588175  -4600.475010106589 1306.829598056444 -441.5961349106416  -6433.555231560845 1560.67960005461 -411.4698907064976  -970.8421614442083 -2701.683640972404 -167.2762910352126  -413.8265086247312 2100.976870893751 -325.0891799822267  4309.286844037452 2691.900674465349 155.6943363169878  8643.606816915535 -970.4733998412066 341.3909939046811  622.2378312010059 -795.0416609454578 -431.1047845926197  1744.292539523279 -2824.620066223595 -74.63331328251981  -3599.930092100757 1899.129783296044 354.2940000914406  9178.278621964111 975.0119949031221 -105.3797387044186  6581.295973077828 2433.316802106798 180.0898008100242  7503.041365839522 2315.993217544719 7.577337228784063  -7658.013675915975 -2100.411512346269 -189.5408988290948  -3594.017503942736 2834.88276498699 33.5812780906142  -5790.367068608612 2630.58383645194 98.70829813127935  -673.293619415069 -1731.242336088079 -373.3171620501176  -2987.878551411762 -323.4435447398208 -467.2940063369403  -5807.01248257834 -566.0330807224868 -488.9542356816672  2526.565259189975 2848.862895956603 -20.67117835667349  287.5386809416159 -2853.360617436168 56.53050631812706  5995.641045696264 -2045.896616126281 339.0610567547279  9184.73101503513 987.3475571124038 125.7559950973586  5226.659344541917 -831.987202390072 476.1484892261658  -8281.357194372593 -1955.905171191062 2.412031708651817  -2176.041990686816 -1902.255835372923 347.9881135788889  5579.747562736647 1529.712067782821 -395.7696779627422  -8655.606516753063 296.2731915471354 366.5245302736156  2630.74647252932 -2166.297680031199 -307.4056281813785  3025.017582357927 1397.705302223786 416.8854969058439  1566.796803756699 2798.045011995112 110.6345348258466  -6588.896921495641 2091.311560213578 -309.4519845240263  8286.124276326205 -1762.416109292118 -173.6671228292188  -192.991217338492 731.8092182177672 434.1649980673696  7772.599510583809 -1658.028067900932 328.4551082296562  -9257.872732282047 930.3345693642635 -36.41588905212618  -5390.363361182861 -2740.23128153556 -7.181888305615444  -3438.795099426993 -2805.174706684524 -98.44168361700446  8683.652618771624 1664.584022216719 11.01939676058205  -2771.770431015373 1432.736575691113 401.6820673950585  3431.797468346711 1313.101837187548 -409.7600276596662  -4222.29034821564 218.6765582974363 -482.7464369006063  -4002.484954001529 2661.488667465059 165.2596156981832  8407.646107837862 -1649.449970989313 219.1398939551392  -771.4642160971173 -2853.890952280854 -53.49340159029253  -7091.569784875422 878.1434086463627 -466.9711851742932  -5251.448679015353 685.3437148363488 -482.1109657131061  -3198.082994121416 2383.340467527264 265.0731495034141  -7077.137929600208 -2436.058339067674 -51.93470603772787  -15.0510892659048 -0.3890538910059471 -0.713954694773793  -3931.277800122131 -1165.616681978006 2.866055622381177  5754.655003781774 480.5685821037412 11.87375597505815  -2441.4060311617 1188.642506679613 98.63751385293983  4432.271547313768 -879.413644514474 114.5798763117249  -3039.065361033467 125.2499854491312 -220.2185685461428  -5898.611343942446 247.6060378344641 -13.79536157186017  1207.018550015498 1317.793198452022 -85.58919136890516  4191.095616704894 -685.9725348448815 -138.9944571580311  -3346.743351748542 -128.6014645036742 200.1198700663762  3158.072360453334 1011.568294535667 176.2318555330819  -1192.749634621502 -1122.37555645705 -178.0471540565082  1031.360829632947 -1617.584434271069 2.809742565851192  2577.656469911047 437.8629995476037 -225.3544734964582  -1006.
[...]
<PointData  Vectors="Tidal Force"> 
<DataArray  type="Float64"  Name="Tidal Force"  NumberOfComponents="3" format="ascii">0.0000000000000000e+00 1.6866998687774072e-14 0.0000000000000000e+00  0.0000000000000000e+00 -1.4293255098085339e-14 0.0000000000000000e+00  0.0000000000000000e+00 1.9093586165365256e-14 0.0000000000000000e+00  0.0000000000000000e+00 -3.6391537268156984e-15 0.0000000000000000e+00  0.0000000000000000e+00 -2.1044842933361830e-14 0.0000000000000000e+00  0.0000000000000000e+00 -1.6196628264413286e-14 0.0000000000000000e+00  0.0000000000000000e+00 -9.6365748358113050e-15 0.0000000000000000e+00  0.0000000000000000e+00 -1.2964485151780924e-14 0.0000000000000000e+00  0.0000000000000000e+00 -1.7297951102791721e-14 0.0000000000000000e+00  0.0000000000000000e+00 9.1577388191250292e-15 0.0000000000000000e+00  0.0000000000000000e+00 1.4592527608514261e-14 0.0000000000000000e+00  0.0000000000000000e+00 -6.1286221775676464e-12 0.0000000000000000e+00  0.0000000000000000e+00 4.7570682331723124e-12 0.0000000000000000e+00  0.0000000000000000e+00 -6.9280628492262197e-12 0.0000000000000000e+00  0.0000000000000000e+00 -6.7055357813716892e-12 0.0000000000000000e+00  0.0000000000000000e+00 6.7474937873338245e-12 0.0000000000000000e+00  0.0000000000000000e+00 6.7504505997368622e-12 0.0000000000000000e+00  0.0000000000000000e+00 5.5935348998211508e-12 0.0000000000000000e+00  0.0000000000000000e+00 -5.0873334047812540e-12 0.0000000000000000e+00  0.0000000000000000e+00 -6.1816173537144002e-12 0.0000000000000000e+00  0.0000000000000000e+00 -1.1084969989984371e-11 0.0000000000000000e+00  0.0000000000000000e+00 -1.1957062056274668e-11 0.0000000000000000e+00  0.0000000000000000e+00 -1.5607276895075816e-11 0.0000000000000000e+00  0.0000000000000000e+00 -1.5822932666090900e-11 0.0000000000000000e+00  0.0000000000000000e+00 -1.8212061029546240e-11 0.0000000000000000e+00  0.0000000000000000e+00 -1.7473564211911412e-11 0.0000000000000000e+00  0.0000000000000000e+00 -1.8838282772168555e-11 0.0000000000000000e+00  0.0000000000000000e+00 -1.7128179793075603e-11 0.0000000000000000e+00  0.0000000000000000e+00 -1.7723408874517895e-11 0.0000000000000000e+00  0.0000000000000000e+00 -1.4815162414472545e-11 0.0000000000000000e+00  0.0000000000000000e+00 -1.5292765428415858e-11 0.0000000000000000e+00  0.0000000000000000e+00 -1.4839774585730220e-11 0.0000000000000000e+00  0.0000000000000000e+00 6.1923791931894248e-12 0.0000000000000000e+00  0.0000000000000000e+00 1.1977915364801355e-11 0.0000000000000000e+00  0.0000000000000000e+00 1.2226742500872378e-11 0.0000000000000000e+00  0.0000000000000000e+00 -1.1370643557539402e-11 0.0000000000000000e+00  0.0000000000000000e+00 -1.0694251771268786e-11 0.0000000000000000e+00  0.0000000000000000e+00 1.0477566502817829e-11 0.0000000000000000e+00  0.0000000000000000e+00 1.5203390685901361e-11 0.0000000000000000e+00  0.0000000000000000e+00 -6.7660007993787499e-12 0.0000000000000000e+00  0.0000000000000000e+00 -1.3186102431203751e-11 0.0000000000000000e+00  0.0000000000000000e+00 -6.7742487497661710e-12 0.0000000000000000e+00  0.0000000000000000e+00 5.1205765952396984e-12 0.0000000000000000e+00  0.0000000000000000e+00 5.9925968361274928e-12 0.0000000000000000e+00  0.0000000000000000e+00 1.1894035265578336e-11 0.0000000000000000e+00  0.0000000000000000e+00 -1.7293653549541962e-11 0.0000000000000000e+00  0.0000000000000000e+00 -1.7885973702182886e-11 0.0000000000000000e+00  0.0000000000000000e+00 -1.0443688854637276e-11 0.0000000000000000e+00  0.0000000000000000e+00 1.2332505406057959e-11 0.0000000000000000e+00  0.0000000000000000e+00 1.6253478070494364e-11 0.0000000000000000e+00  0.0000000000000000e+00 1.4725560224850127e-11 0.0000000000000000e+00  0.0000000000000000e+00 1.7827017017628387e-11 0.0000000000000000e+00  0.0000000000000000e+00 1.5997851462986395e-11 0.0000000000000000e+00  0.0000000000000000e+00 1.8385244045881248e-11 0.0000000000000000e+00  0.0000000000000000e+00 1.6485665654985543e-11 0.0000000000000000e+00  0.0000000000000000e+00 1.8597188837767010e-11 0.0000000000000000e+00  0.0000000000000000e+00 1.6811310059033462e-11 0.0000000000000000e+00  0.0000000000000000e+00 1.9135544171327391e-11 0.0000000000000000e+00  0.0000000000000000e+00 -1.5467396923701341e-11 0.0000000000000000e+00  0.0000000000000000e+00 -1.7812268868314455e-11 0.0000000000000000e+00  0.0000000000000000e+00 1.7979550230743800e-11 0.0000000000000000e+00  0.0000000000000000e+00 1.5100297291508805e-11 0.0000000000000000e+00  0.0000000000000000e+00 1.5362053000030362e-11 0.0000000000000000e+00  0.0000000000000000e+00 1.0804312229704126e-11 0.0000000000000000e+00  0.0000000000000000e+00 1.0310931569011004e-11 0.0000000000000000e+00  0.0000000000000000e+00 9.8089677727187836e-12 0.0000000000000000e+00  0.0000000000000000e+00 1.4060169696062878e-11 0.0000000000000000e+00  0.0000000000000000e+00 4.5902776776600658e-12 0.0000000000000000e+00  0.0000000000000000e+00 8.2458794216489355e-12 0.0000000000000000e+00  0.0000000000000000e+00 2.7735139758502482e-12 0.0000000000000000e+00  0.0000000000000000e+00 -3.2796556163880587e-12 0.0000000000000000e+00  0.0000000000000000e+00 1.1278587333331467e-11 0.0000000000000000e+00  0.0000000000000000e+00 -7.8754039955387638e-12 0.0000000000000000e+00  0.0000000000000000e+00 -1.4590181312032498e-11 0.0000000000000000e+00  0.0000000000000000e+00 -4.1140513172647289e-12 0.0000000000000000e+00  0.0000000000000000e+00 -9.8559056732544531e-12 0.0000000000000000e+00  0.0000000000000000e+00 2.9395383937357969e-12 0.0000000000000000e+00  0.0000000000000000e+00 1.3364552643722309e-11 0.0000000000000000e+00  0.0000000000000000e+00 4.9809719545748151e-12 0.0000000000000000e+00  0.0000000000000000e+00 1.3012811676764988e-11 0.0000000000000000e+00  0.0000000000000000e+00 -8.6252372558686386e-12 0.0000000000000000e+00  0.0000000000000000e+00 1.5528652021135932e-12 0.0000000000000000e+00  0.0000000000000000e+00 8.0036721935086000e-12 0.0000000000000000e+00  0.0000000000000000e+00 -9.6408125345589782e-12 0.0000000000000000e+00  0.0000000000000000e+00 -1.4476936594086197e-11 0.0000000000000000e+00  0.0000000000000000e+00 1.5732061561024265e-11 0.0000000000000000e+00  0.0000000000000000e+00 -1.9019773593393067e-11 0.0000000000000000e+00  0.0000000000000000e+00 1.4003918435002659e-12 0.0000000000000000e+00  0.0000000000000000e+00 -2.1941822501619399e-12 0.0000000000000000e+00  0.0000000000000000e+00 -1.3311737031081811e-11 0.0000000000000000e+00  0.0000000000000000e+00 -1.7015581503751825e-11 0.0000000000000000e+00  0.0000000000000000e+00 -8.2418571991087708e-12 0.0000000000000000e+00  0.0000000000000000e+00 1.8234853623940505e-11 0.0000000000000000e+00  0.0000000000000000e+00 -1.6136498431617906e-11 0.0000000000000000e+00  0.0000000000000000e+00 -1.1643364610843073e-11 0.0000000000000000e+00  0.0000000000000000e+00 1.6770896299225140e-11 0.0000000000000000e+00  0.0000000000000000e+00 1.4878907459193905e-11 0.0000000000000000e+00  0.0000000000000000e+00 1.1139413645081599e-11 0.0000000000000000e+00  0.0000000000000000e+00 4.8708755834382227e-12 0.0000000000000000e+00  0.0000000000000000e+00 -1.1279940045078606e-11 0.0000000000000000e+00  0.0000000000000000e+00 1.2810323896208776e-11 0.0000000000000000e+00  0.0000000000000000e+00 -1.7324287083709467e-11 0.0000000000000000e+00  0.0000000000000000e+00 9.5382338888843615e-12 0.0000000000000000e+00  0.0000000000000000e+00 4.1335997976459473e-12 0.0000000000000000e+00  0.0000000000000000e+00 1.7910693611544313e-11 0.0000000000000000e+00  0.0000000000000000e+00 -2.9628457368480015e-12 0.0000000000000000e+00  0.0000000000000000e+00 -1.5604667238784879e-11 0.0000000000000000e+00  0.0000000000000000e+00 -5.1293632361458913e-12 0.0000000000000000e+00  0.0000000000000000e+00 -9.1705357116709705e-12 0.0000000000000000e+00  0.0000000000000000e+00 -4.7799565947699157e-12 0.0000000000000000e+00  0.0000000000000000e+00 -6.4156723986706529e-12 0.0000000000000000e+00  0.0000000000000000e+00 -8.4659404840175321e-13 0.0000000000000000e+00  0.0000000000000000e+00 8.7159168265286016e-12 0.0000000000000000e+00  0.0000000000000000e+00 1.0408985214327936e-11 0.0000000000000000e+00  0.0000000000000000e+00 -1.8018934493116250e-11 0.0000000000000000e+00  0.0000000000000000e+00 1.4012513541502177e-11 0.0000000000000000e+00  0.0000000000000000e+00 1.7953705056743158e-11 0.0000000000000000e+00  0.0000000000000000e+00 -6.4725820592538172e-12 0.0000000000000000e+00  0.0000000000000000e+00 -5.3025462524809006e-12 0.0000000000000000e+00  0.0000000000000000e+00 -1.8838857375388575e-11 0.0000000000000000e+00  0.0000000000000000e+00 1.2666278051489129e-11 0.0000000000000000e+00  0.0000000000000000e+00 6.5028684373092230e-12 0.0000000000000000e+00  0.0000000000000000e+00 1.6229069404543782e-11 0.0000000000000000e+00  0.0000000000000000e+00 1.5446567556975488e-11 0.0000000000000000e+00  0.0000000000000000e+00 -1.4008718766069939e-11 0.0000000000000000e+00  0.0000000000000000e+00 1.8907318954874295e-11 0.0000000000000000e+00  0.0000000000000000e+00 1.7544731214891412e-11 0.0000000000000000e+00  0.0000000000000000e+00 -1.1546543968269106e-11 0.0000000000000000e+00  0.0000000000000000e+00 -2.1572161096737591e-12 0.0000000000000000e+00  0.0000000000000000e+00 -3.7751431555546000e-12 0.0000000000000000e+00  0.0000000000000000e+00 1.9000560298223529e-11 0.0000000000000000e+00  0.0000000000000000e+00 -1.9030523461967673e-11 0.0000000000000000e+00  0.0000000000000000e+00 -1.3645150549500465e-11 0.0000000000000000e+00  0.0000000000000000e+00 6.5851564067767593e-12 0.0000000000000000e+00  0.0000000000000000e+00 -5.5489672375680751e-12 0.0000000000000000e+00  0.0000000000000000e+00 -1.3044953544385052e-11 0.0000000000000000e+00  0.0000000000000000e+00 -1.2687119389115400e-11 0.0000000000000000e+00  0.0000000000000000e+00 1.0202451269430730e-11 0.0000000000000000e+00  0.0000000000000000e+00 1.9760006191588383e-12 0.0000000000000000e+00  0.0000000000000000e+00 -1.4448158549483349e-11 0.0000000000000000e+00  0.0000000000000000e+00 9.3220513982509264e-12 0.0000000000000000e+00  0.0000000000000000e+00 1.8661640165612984e-11 0.0000000000000000e+00  0.0000000000000000e+00 1.3948062213656203e-11 0.0000000000000000e+00  0.0000000000000000e+00 -1.1754466537614705e-11 0.0000000000000000e+00  0.0000000000000000e+00 4.8808234016848802e-12 0.0000000000000000e+00  0.0000000000000000e+00 -1.1058250940253276e-11 0.0000000000000000e+00  0.0000000000000000e+00 6.2049007550257704e-12 0.0000000000000000e+00  0.0000000000000000e+00 -1.8276009579574695e-11 0.0000000000000000e+00  0.0000000000000000e+00 -1.8709176611169512e-11 0.0000000000000000e+00  0.0000000000000000e+00 1.1101992610377566e-11 0.0000000000000000e+00  0.0000000000000000e+00 9.5556874616925766e-12 0.0000000000000000e+00  0.0000000000000000e+00 8.7577670943869827e-12 0.0000000000000000e+00  0.0000000000000000e+00 1.4584626814238941e-12 0.0000000000000000e+00  0.0000000000000000e+00 1.7750870120074851e-11 0.0000000000000000e+00  0.0000000000000000e+00 -1.1001030036259266e-11 0.0000000000000000e+00  0.0000000000000000e+00 -1.9034078819391573e-11 0.0000000000000000e+00  0.0000000000000000e+00 5.8568228835960990e-12 0.0000000000000000e+00  0.0000000000000000e+00 4.5709207316855226e-12 0.0000000000000000e+00  0.0000000000000000e+00 1.5895739682428048e-11 0.0000000000000000e+00  0.0000000000000000e+00 -1.6247336998580367e-11 0.0000000000000000e+00  0.0000000000000000e+00 -2.5976853905230478e-15 0.0000000000000000e+00  0.0000000000000000e+00 -7.7740942653083659e-12 0.0000000000000000e+00  0.0000000000000000e+00 3.2051846448929256e-12 0.0000000000000000e+00  0.0000000000000000e+00 7.9276689467600714e-12 0.0000000000000000e+00  0.0000000000000000e+00 -5.8652623683901954e-12 0.0000000000000000e+00  0.0000000000000000e+00 8.3536534381045996e-13 0.0000000000000000e+00  0.0000000000000000e+00 1.6514096543476289e-12 0.0000000000000000e+00  0.0000000000000000e+00 8.7890590280774301e-12 0.0000000000000000e+00  0.0000000000000000e+00 -4.5751105468315269e-12 0.0000000000000000e+00  0.0000000000000000e+00 -8.5770304398887487e-13 0.0000000000000000e+00  0.0000000000000000e+00 6.7466677952050407e-12 0.0000000000000000e+00  0.0000000000000000e+00 -7.4857033033586386e-12 0.0000000000000000e+00  0.0000000000000000e+00 -1.0788522612053896e-11 0.0000000000000000e+00  0.0000000000000000e+00 2.9203490403670945e-12 0.0000000000000000e+00  0.0000000000000000e+00 -8.3834130965416519e-12 0.0000000000000000e+00  0.0000000000000000e+00 -1.0355187987853234e-12 0.0000000000000000e+00  0.0000000000000000e+00 8.6775261488907794e-12 0.0000000000000000e+00  0.0000000000000000e+00 -4.3720601339557120e-12 0.0000000000000000e+00  0.0000000000000000e+00 5.7535738674981210e-13 0.0000000000000000e+00  0.0000000000000000e+00 5.0735309566002723e-12 0.0000000000000000e+00  0.0000000000000000e+00 1.1598856803092083e-11 0.0000000000000000e+00  0.0000000000000000e+00 7.4601334600675914e-12 0.0000000000000000e+00  0.0000000000000000e+00 1.0457192030307828e-11 0.0000000000000000e+00  0.0000000000000000e+00 4.8421573933374642e-12 0.0000000000000000e+00  0.0000000000000000e+00 -4.2113507958553803e-12 0.0000000000000000e+00  0.0000000000000000e+00 7.6270078118827583e-12 0.0000000000000000e+00  0.0000000000000000e+00 -4.6452719941764845e-12 0.0000000000000000e+00  0.0000000000000000e+00 7.8429748263086864e-13 0.0000000000000000e+00  0.0000000000000000e+00 -1.0251172834128558e-11 0.0000000000000000e+00  0.0000000000000000e+00 3.9822038200701630e-12 0.0000000000000000e+00  0.0000000000000000e+00 -3.6942318396350367e-12 0.0000000000000000e+00  0.0000000000000000e+00 -1.2109391764082989e-11 0.0000000000000000e+00  0.0000000000000000e+00 -1.2739635729245466e-11 0.0000000000000000e+00  0.0000000000000000e+00 -1.1290211077636526e-11 0.0000000000000000e+00  0.0000000000000000e+00 1.0512186346824248e-11 0.0000000000000000e+00  0.0000000000000000e+00 -1.0894058070131552e-11 0.0000000000000000e+00  0.0000000000000000e+00 1.2796210204616951e-11 0.0000000000000000e+00  0.0000000000000000e+00 -5.0212779762793829e-12 0.0000000000000000e+00  0.0000000000000000e+00 7.0748021465397283e-12 0.0000000000000000e+00  0.0000000000000000e+00 5.6343915829449069e-12 0.0000000000000000e+00  0.0000000000000000e+00 3.1302468082815240e-12 0.0000000000000000e+00  </DataArray> 
</PointData> 
</Piece>
</UnstructuredGrid>
</VTKFile>