<?xml version="1.0"?>
<VTKFile type="UnstructuredGrid"  version="0.1"  >
<UnstructuredGrid>
<Piece  NumberOfPoints="201" NumberOfCells="657">
<Points>
<DataArray  type="Float64"  NumberOfComponents="3"  format="ascii">-41.75016720451001 -4.938656880496224 5659.104279777659  2.510746904176329 2.067804359427551 -5658.576034835747  2505.656887920598 0.6070062809127923 -5366.917138895728  4619.953842430654 -2.073841619785674 -4514.698714842499  6311.066685802182 -1.186950562739955 -3202.870262659509  7448.227476196766 1.167745214465182 -1621.831680186027  7817.199069015494 0.8912406004994454 87.4642732040631  7430.122973403769 -7.276451588433036 1794.569068662756  6414.824608524681 0.176140619404199 3344.673223023075  4711.841269357996 5.132832142895973 4558.476095657533  2420.505601300207 2.777204322775055 5369.29887141122  3230.743187800286 -117.6618705488378 -5013.956688368417  3148.090258577547 92.38568301066613 5113.489680789149  7603.389594041464 -122.4501012226485 -758.8296591102097  5630.417096870719 -113.9175098995093 3861.427157845451  6944.222618477437 118.5696983927023 2470.283415179773  6909.133244012718 116.7696904422345 -2328.617567887579  3564.151110714216 108.0315722511286 -4918.739403058119  1171.116440644135 -106.5610370374057 5490.879701071797  5432.1829986427 -110.296226732612 -3837.920981965958  4077.166304105678 -166.8542404938354 -4281.161279675927  6016.506482189816 -163.2195156865978 -2864.24671495858  4618.866668180678 -141.2618021715781 -3119.739772846146  6365.312280027159 -166.6418784251267 -1411.723484867081  4653.922221733024 -96.15258547065315 -1427.501148010975  6054.31027576084 -141.2169596240243 414.8295129357191  3687.827179321055 -75.08157022198108 762.7866361786115  4727.383267094673 -120.9592025542998 2476.51511985388  1825.304818805406 -81.60147284168464 2882.96308684924  2851.759375895933 -132.9387474943931 4075.622919335795  -139.2678576793953 -123.2242216550882 4265.805509123233  6423.154462675555 -172.9170203256679 1887.050369926516  5568.496166874545 110.3065283072476 3929.793165883056  5986.044914440193 164.4615164814405 3112.291896765211  7071.453739866527 171.3038475257129 1430.306621533908  912.9329913457009 -157.591582668035 5044.262197352238  3551.232294346426 -145.7558388126963 4610.099758099462  4076.683745067416 156.8001819284878 4424.036904636421  4386.781458501149 144.2733335003835 3475.123188143525  7604.608324590517 -121.9049072488799 909.1641982308149  7255.150528368451 -181.5947086771113 176.2989331931146  6971.214558217551 -119.391919190347 -2257.298156430637  1265.190161326343 103.0643802582464 -5492.384302497244  5373.184590175027 107.7045588400117 -3890.184537634538  5838.245515554014 166.9415380084146 -3031.626074838319  2254.083291975845 -89.43191855696121 -3115.157253467022  -1678.2860524588 -79.2385355937773 2731.699907713876  1818.724001529774 -146.6286154967306 -5065.104272292387  7074.733561717903 184.5876895533803 -1314.294895926542  5954.340881494002 154.4209761283555 -1804.343468462172  4152.755960767897 156.1602505924909 -3622.139353246671  3778.494048949185 94.64704753630556 -2291.366065018571  1586.852818856237 112.2288183370188 -3875.924102417283  506.6460262255068 67.99992000486441 -2329.499614020534  -1661.911803301787 100.3985310012438 -3690.641879188514  -2981.439988277854 74.68908749985964 -1746.762060070545  -4618.932790375338 124.7316924283765 -2748.480265595399  -627.0223773201635 49.64647156964826 170.1914976382446  -3162.696029093593 -135.5169150305917 3800.722252744946  -4622.534044639702 -112.9721489399382 1984.413979514879  -5547.141115659668 117.2925991558354 -807.394149394607  -6449.980069950645 170.425932751024 -1739.777956257317  -6832.483578994387 173.134414399736 56.78333245412766  -7330.078463166277 170.2145166437619 -1038.529962934535  -7357.486871476656 164.5423305314887 793.066434007005  -6525.207394248313 160.4536947044991 -2769.535249863421  -6421.994230372391 178.2218291513914 1981.936360221905  -7410.242216955594 85.41178212638754 -1736.633853324267  -6704.713598204139 142.8244446779121 2506.690118160574  -6310.406243027704 51.61113563839763 -3388.797419718862  -7071.181392581575 -59.35351866915458 -2436.783796721034  -5279.992139014079 158.059245136728 3622.79248479199  -1215.801587464988 -144.987778361972 5339.918831918836  -5497.410930022232 -161.3758584301687 2864.450148969653  -5711.134590690073 -78.99857116606215 -3877.3654323064  -6451.350720590306 -156.2176561886622 -2875.601724585301  -7476.287265841685 58.50523363463846 1349.091999184779  -3109.959057621759 149.1060106118628 -4393.934393100869  -5453.428849884853 84.61954824641107 3929.226545574927  1945.560069458326 150.2158368279212 4647.084517164874  -7471.213473804772 -140.1797948433363 -1070.501302816885  -4625.108466190548 31.73459389716983 -4621.883963726536  -3766.227330176406 140.4316229484386 4720.49313668234  -4713.022010413485 -155.9115614127282 -4226.843744523962  -5399.319064039791 -159.4877353701369 -3114.297486547821  -4733.537496363985 142.9859976598572 3044.922949275491  -3010.343885956525 -62.45283713774175 502.5244874089997  -3797.35301508264 30.78691996516505 4943.442233527865  -5566.510302742416 -44.09678668208578 3914.479995310904  -3129.857303969615 -150.886207651272 -4408.059538761089  -3531.949062923452 -114.1524646603479 -3080.465282229518  -2493.574062788135 -143.1859490684829 -5148.686414296961  5398.79295975102 106.3118410257883 -147.0990012814748  -6408.016994542865 -154.9335553215557 1101.028772472589  -6869.636998070703 -178.208019846857 1796.990821631457  1861.310168627278 102.9447132177534 3520.128685049004  -690.4893334417095 121.1999536351534 4386.875811254722  -243.5999182693504 158.0010556733064 5097.291755455166  -2254.627342511325 96.40010514424746 5331.075479005439  -3921.664850982867 -160.4560762809986 4367.829533946647  2198.30916225356 146.8390257560748 -4660.176359047611  -5607.466465863728 -128.8300041946992 -1605.106329825152  -644.0967009649926 151.6616950401649 -5257.636350270309  -1372.966345835028 81.4155987124079 -5521.034504553107  -1275.634508643529 77.32492219762997 2756.06255435903  -1771.055029638403 -65.62329113470547 5477.685502434238  -724.2279358688103 -117.6559294758046 -4133.073340011424  -3686.151335729032 -98.12017805747544 4902.245509963435  -5808.237352867444 -148.3659620298722 3413.746939261663  -6888.906518240304 -90.73617359397706 2453.532644111544  -7566.684857989968 -108.7381395061977 707.2392770932208  -7744.252674105081 -12.78769369186563 -575.748928550788  -3238.060151047208 141.5956607201369 -4921.600513758924  -4956.283048808374 157.7248388029053 -4028.856098417479  -983.2434652555788 -75.46493604400605 -2682.841281204092  -307.9604078249591 140.2999606387544 -4608.124275032832  4279.00179421623 103.3193018291169 2012.306041539935  6914.365786939741 -113.8009193185812 2563.630375398986  426.9352363747639 -100.6300036803411 -5547.163957251031  1904.50910204117 -57.14087596658267 -1309.530387179421  -2806.606600679719 157.7124973530445 4546.986442066423  7616.641016793443 120.46150564826 -774.7313773729321  6071.986982805842 149.773976736788 1776.507660561998  6862.552454248525 174.2391263107683 6.105951552013785  -6747.378513001147 -174.1250646330304 -1658.864662361106  -3798.567186572877 77.01442569293141 595.2274507916135  -5614.2770810702 124.163092318879 1271.055686278432  -502.5726890520325 -155.4430919000567 -5050.641337652709  -1918.174573318157 -46.57939848874835 -5496.807825685054  -3944.875462323895 -74.81240321381246 -4894.576377283383  2799.061292370411 62.44068177538298 -411.2967715145058  322.2153532758152 -51.22857676368342 1007.735062018234  5012.654273843919 -159.2459599155874 3507.320316558494  7614.428198744168 110.2326689078998 838.2292664867479  3569.199887917701 -95.31982693300519 4944.319689793883  -7222.74268697074 -178.5155833929679 57.25597628229757  -1696.557690067619 -158.1863954897801 4748.804541857058  4131.750275319729 164.5137106006247 -4359.293345181556  -6693.504344230288 38.63290050973598 2809.656234701549  2198.680043952967 -132.8820562620652 -4302.962541015461  2035.288028926022 148.5198689038924 5107.4013311074  1691.642165708945 62.72195084266668 1826.880893464899  -5626.0947094498 160.6844932885299 -3060.678426501179  7071.44719609381 -178.1698875815837 -1458.09385576887  -175.2729170924095 95.81808618386547 5564.317937419174  6405.148669762917 -164.4456138393233 2781.289829777514  -7677.274672288493 111.0914931984913 -214.2775644016692  -5422.242100677983 -113.5327279269226 7.255379194445149  -3604.74809411968 -78.57201860623444 -1381.147512389016  7457.980632820236 169.3713012083086 37.02430426128102  -1969.274195690637 155.8756871189681 5100.991793473082  2416.04714653041 144.6730777204557 -5102.303092575108  -2721.286983108362 28.19561088112389 -5344.494218482695  -3929.321382030262 102.0523144818058 2399.862200223679  7088.135135720298 -172.2415866726886 1695.751440008127  -856.4246049344705 -53.03875866838081 -911.2800893630637  -5184.611450950276 107.0022928332875 -4195.189802099245  -3546.61132707805 88.16849514266175 -5031.817502911099  -2839.778127054637 128.856611258906 3723.30884525429  -6545.552127274324 -167.453144005499 -451.3688475065528  -31.54277650845867 0.2278168052106482 -3.126777319883983  -3702.131358593384 -30.08854879108088 196.1944255423604  5208.226492120782 17.96260815539541 24.73135517695088  -2292.35892568408 30.75592841474308 1811.061089006555  4011.150782661308 -27.84745399602722 1611.324566600347  -2512.044667085 4.028452310031619 -3385.762561373105  -5295.572150494845 7.107092715953091 -52.75764078965326  1125.624521109739 30.42244696092475 -1657.644066477968  3707.758166711954 -22.65071543504943 -2282.614897156852  -2812.005158465498 -5.675891193167662 3243.993682699208  2756.645474681361 36.28174711025325 2751.876195367997  -1040.244079465936 -35.98749025514768 -3037.703237314367  1043.09132966785 -26.37069146822835 28.08584555145823  2094.475458802883 20.02640947332905 -3654.063887823433  -911.0742
[...]
<PointData  Vectors="Velocity"> 
<DataArray  type="Float64"  Name="Velocity"  NumberOfComponents="3" format="ascii">-1.0068944843722087e-04 -2.2188219312963314e-06 2.1122674324809344e-03  3.4421336443234426e-06 5.3859829387279608e-06 -2.1151003766405529e-03  1.9640511199098261e-03 3.6933185330818052e-06 -1.9876726922244564e-03  3.4237910430257486e-03 -2.4832789457841939e-06 -1.5567786920759224e-03  4.6259906018515321e-03 -2.6686881374175093e-06 -9.5932609151494908e-04  5.4977837000960853e-03 5.0229716257353134e-06 -3.6320733669299168e-04  5.7467963245588817e-03 4.6422899768469987e-06 1.5943594847857382e-04  5.4742266740076557e-03 -1.1795574016203645e-05 7.0442234819277779e-04  4.8815412529054454e-03 -4.0670049823913053e-06 1.2402643206228762e-03  3.6663101324627928e-03 7.7497560382695258e-06 1.6451485690156138e-03  1.8079690913019970e-03 5.2645692091660540e-06 1.9737607411688066e-03  2.5383253399652180e-03 5.7735583118869904e-05 -1.9069831992300306e-03  2.4476625975508527e-03 -4.4579611345113775e-05 1.9318866810166910e-03  5.6953745462121601e-03 2.7584977147071250e-05 -1.1802516271263186e-04  4.4505596591529282e-03 5.9477998296496175e-05 1.4699802101173437e-03  5.2590113952605266e-03 -3.9361158012180033e-05 9.8225600675365832e-04  5.2012605932434163e-03 -3.7824969603428955e-05 -6.3727673856094720e-04  2.7611713714772407e-03 -4.7420113848004581e-05 -1.8398866690485004e-03  8.3265459630095496e-04 5.3644373992605517e-05 2.1241115340468212e-03  4.0443726785911963e-03 4.2784984449496012e-05 -1.3099100529800280e-03  3.2491890483112087e-03 1.0953883269934686e-04 -1.7644776145449043e-03  4.7640805423534507e-03 1.0885030063019053e-04 -1.0281715873103141e-03  3.9910876414231732e-03 1.8166039418967769e-04 -1.4967891968475635e-03  5.4382401098023170e-03 1.5290886083989814e-04 -5.0596280281114936e-04  4.4772548089173601e-03 2.0820314842721018e-04 -7.7207895324280190e-04  5.4203580201732278e-03 1.8171432092910607e-04 3.0611981027093004e-04  3.6793470046757627e-03 2.0498337828047999e-04 5.4971808665390946e-04  4.3178525697285921e-03 2.0224258968115991e-04 1.4152645089158698e-03  1.7303973397256804e-03 2.0491910039642912e-04 1.8742195622935074e-03  2.4907492661618239e-03 1.9475381794119764e-04 2.1091288144610256e-03  -1.7533948513330218e-04 1.9438893616798380e-04 2.3724316929825380e-03  5.3406848298754349e-03 1.3714821659800228e-04 9.2660812420484139e-04  4.3894144304446108e-03 -5.2756231820669046e-05 1.4901933829178052e-03  4.8948164212545674e-03 -1.2050499455588633e-04 1.3608529220475703e-03  5.5529100692343920e-03 -9.7547791938777664e-05 6.5584640044214805e-04  6.6478143964430819e-04 1.4472330732180673e-04 2.3167375663495880e-03  2.9276750380765270e-03 1.3955843696691864e-04 1.9851813422214707e-03  3.3197836815606376e-03 -1.1446023327945210e-04 1.8649288650963507e-03  3.8569130412647434e-03 -1.8304026880199594e-04 1.7754290268391546e-03  5.6884092744262597e-03 2.4339437211068431e-05 4.1731839806084169e-04  5.7997510172225035e-03 9.4752373054430056e-05 1.7653282498217280e-04  5.2672311250969786e-03 3.7135300232175346e-05 -6.0046169835496223e-04  1.0265526471129310e-03 -5.1203606149671449e-05 -2.1397740707773763e-03  4.0026823374202016e-03 -4.5816995025777596e-05 -1.3297187182411564e-03  4.6064082743420979e-03 -1.0783680072800663e-04 -1.1110841435029734e-03  2.1497793131310889e-03 2.0857032755236895e-04 -1.9179915723965015e-03  -1.6848895706768857e-03 1.9926329616104974e-04 1.7759872899772418e-03  1.5420486779842285e-03 1.3893242245494148e-04 -2.2493945273635860e-03  5.6012189482210614e-03 -7.4128456294579492e-05 -3.5335442021904891e-04  5.1939599663713074e-03 -1.6697602169204936e-04 -7.3176152075916782e-04  3.5603820671553823e-03 -1.6705073994288024e-04 -1.7305277096690374e-03  3.6041569941584694e-03 -2.0154283403832460e-04 -1.3324211278918944e-03  1.4603916027734237e-03 -1.9920802850758459e-04 -2.1972617269469816e-03  4.8504153752885006e-04 -1.9266513914398113e-04 -1.6212884057239458e-03  -1.5615500302741149e-03 -2.0330437300872513e-04 -2.1862428338551843e-03  -2.9540590353285506e-03 -2.0102532380131299e-04 -1.2071446449782384e-03  -4.1894495084716186e-03 -2.0139187202199667e-04 -1.5670863687292573e-03  -6.7363333407996051e-04 -1.7491239612198785e-04 1.2691527352141717e-04  -2.8199845491423065e-03 1.8387804969066836e-04 1.9843229579603848e-03  -4.2734145556790320e-03 2.0113198589948026e-04 1.1036900569725721e-03  -5.0951754520245944e-03 -2.0760560114789446e-04 -5.4557876722201900e-04  -5.3867504608152523e-03 -1.4617013191092757e-04 -9.0575984494273992e-04  -5.6459745544431526e-03 -1.4257840724682852e-04 -1.1763621320944890e-04  -5.6596255155161538e-03 -6.3673719137755948e-05 -5.4364465892181861e-04  -5.5857332618493597e-03 -5.5195743771281546e-05 1.4748362542169215e-04  -5.0930317210409991e-03 -6.1261612973689664e-05 -1.1586968504335915e-03  -5.1948943246578061e-03 -1.2303185033682020e-04 7.6528062648671972e-04  -5.5325975570378293e-03 -1.1494603869079749e-05 -7.4201234423949792e-04  -5.0304366520604509e-03 -4.4680771551404396e-05 8.3173100460902003e-04  -4.7605416307025727e-03 -1.7144383664597631e-05 -1.2882955579092844e-03  -5.2966438031454280e-03 1.9520250026871161e-05 -9.5896187631259522e-04  -4.1827201282780245e-03 -1.1913528754967728e-04 1.4572433645604708e-03  -1.0412666407478566e-03 8.3513996565482573e-05 2.1645052634155001e-03  -4.5762349692169395e-03 1.5219774303658242e-04 1.2692882991047530e-03  -4.3416318862012247e-03 1.9922200627302593e-05 -1.4719046014426568e-03  -5.0702256563626528e-03 6.9492955587545377e-05 -1.2055116628739222e-03  -5.4368416687070138e-03 -2.5664408946057416e-06 3.3131563832984698e-04  -2.6746119030380119e-03 -1.6824962528588682e-04 -2.1303736201321467e-03  -4.0948433744725224e-03 -4.8231982843951319e-05 1.3794170984840178e-03  1.6002808373382141e-03 -1.6589665964943486e-04 2.2426736803917930e-03  -5.6661059711905649e-03 5.8084063472423316e-05 -5.4683645582575169e-04  -3.5351934555516939e-03 -1.5643995537652826e-05 -1.7209035076038010e-03  -2.9483748835798839e-03 -7.6757832582382104e-05 1.8441150192100456e-03  -3.7569242633698026e-03 8.5556259883127651e-05 -1.7484320804972287e-03  -4.6037909407609353e-03 1.5765540815191120e-04 -1.5333402928507081e-03  -4.0978789548282036e-03 -1.8523709716327999e-04 1.5060641457945087e-03  -3.0690031952315460e-03 1.9623313294556995e-04 3.0658744133112121e-04  -2.8787157415031883e-03 -1.1262910156669290e-05 1.7895612619799747e-03  -4.1429340419332737e-03 7.9162206671503952e-06 1.3336813517632929e-03  -2.6823994204791760e-03 1.5947283524394461e-04 -2.1375882284283844e-03  -3.2758960711425631e-03 2.0022447420592988e-04 -1.7955287987225035e-03  -2.0335155975495195e-03 8.8346414850018647e-05 -2.1232416402602100e-03  5.1035110628365691e-03 -2.0703501616746450e-04 4.6913389814006493e-06  -5.4721269284121049e-03 1.6873108571432765e-04 4.1384831491868463e-04  -5.3080431816917616e-03 7.2691187815897165e-05 6.0079712003113838e-04  1.6939399121970020e-03 -2.0327107213432600e-04 2.1155465438261831e-03  -6.8172904165661647e-04 -1.9242249273946369e-04 2.3888124787840447e-03  -2.6607937268330507e-04 -1.3631525658427943e-04 2.3121906971740351e-03  -1.8071996193237908e-03 -4.6844108730834700e-05 2.0137835438304385e-03  -3.1635485792902876e-03 1.1794026931963925e-04 1.8600449963892764e-03  1.8946889182107453e-03 -1.6118144546393352e-04 -2.2312407527382899e-03  -5.0454459669296492e-03 1.9597381544965610e-04 -9.4545312584610065e-04  -5.3145804232693000e-04 -1.1608118522481514e-04 -2.2557013085210613e-03  -1.1084527685735605e-03 -4.5277429352479954e-05 -2.1054809309124386e-03  -1.2718895242702863e-03 -1.9774651204885614e-04 1.8177439342424362e-03  -1.4456122924635581e-03 2.6126437067495386e-05 2.0339381719895150e-03  -6.5763066743359144e-04 1.9681644119005101e-04 -2.3359115916402103e-03  -2.8275078288760923e-03 4.2809682565150007e-05 1.8360960781941672e-03  -4.4759903157264979e-03 7.0576462924258547e-05 1.2444305916484561e-03  -5.0540239698560049e-03 1.5900205792756063e-05 7.6872549595203047e-04  -5.5798562466264443e-03 3.5151246395563149e-05 9.1506545640715283e-05  -5.6765999861077580e-03 1.4018467842333625e-05 -3.5956345489698198e-04  -2.5942233600208683e-03 -1.0056536357137670e-04 -2.0413332013977056e-03  -3.9842631223085288e-03 -1.0783300873701084e-04 -1.7094289145452087e-03  -9.8745115926810356e-04 2.0052934567660555e-04 -1.7925688051181434e-03  -2.5922048762893165e-04 -1.8263763172830482e-04 -2.3839305753220359e-03  4.0476864358508415e-03 -2.0758150627196400e-04 1.2297084564513103e-03  5.2483557570541343e-03 3.1815891666678826e-05 1.0229203888557806e-03  3.4990192645425734e-04 6.7714866636452620e-05 -2.1727978854771323e-03  1.9498473520128056e-03 1.9348901829300579e-04 -9.2024026122766028e-04  -2.3947820435733626e-03 -1.4914378213705791e-04 2.1022995745405772e-03  5.6916603532726068e-03 -1.3679809938050885e-05 -1.2162482592816049e-04  5.2549546271929790e-03 -1.8004860165804051e-04 9.3006104675742772e-04  5.7213326179885136e-03 -1.3527195240973139e-04 1.1907588742583939e-04  -5.5308975381149752e-03 1.3088337975992228e-04 -8.3504212720945557e-04  -3.7532346922347008e-03 -2.0355708901455716e-04 3.4446263972292071e-04  -5.0685982330764242e-03 -2.0111076216790664e-04 6.2788659286354995e-04  -4.3180722475160327e-04 1.4943144171016031e-04 -2.3519835182696362e-03  -1.5275608903376088e-03 2.0541351965671521e-05 -2.0614949644475289e-03  -3.0445187910097954e-03 2.8298397320519834e-05 -1.8502468087389452e-03  2.8858256543202320e-03 -1.9155566253378943e-04 -2.6245864987045419e-04  3.1497148744188876e-04 1.8680774711241641e-04 7.6940463341988448e-04  4.2347185910762584e-03 1.5575464843013164e-04 1.6260125315221863e-03  5.6694556050351768e-03 -3.3422322298968953e-05 4.0277869469174842e-04  2.8017378094199220e-03 6.8950065505465414e-05 1.8782890874093486e-03  -5.7184605264652810e-03 1.0687613501929056e-04 -1.3144598721751620e-04  -1.4994586445765026e-03 1.5211762410225193e-04 2.2510031682119696e-03  3.2615195716419079e-03 -9.4521536831330581e-05 -1.7501619675957217e-03  -4.8957315250026615e-03 -8.5585052438282491e-06 8.8572520415743799e-04  1.9601876801920550e-03 1.9016092994470935e-04 -2.2225672202153116e-03  1.5754788233074131e-03 -1.1061860684741762e-04 2.1512275857585744e-03  1.7064537891602410e-03 -1.8949890283912659e-04 1.3214245506467895e-03  -4.7282972013012528e-03 -1.5494750435838921e-04 -1.4639338749567504e-03  5.5653597206543944e-03 7.6523317756196286e-05 -3.8984369049112875e-04  -2.1039310670564409e-04 -5.1925350614144456e-05 2.1475812620832535e-03  5.0883038064810562e-03 8.6921199974547070e-05 1.1895644721200518e-03  -5.6984835860258041e-03 -2.0494714274061349e-05 -2.3374764960808504e-04  -5.0280852419351280e-03 2.0241647582787766e-04 -8.5724931444056793e-05  -3.5597043719605994e-03 2.0525793931745672e-04 -9.5667282729442003e-04  5.7668799659359145e-03 -6.1526793687863458e-05 1.3564098220600275e-04  -1.6503122120802361e-03 -1.0514423459760233e-04 2.1376037848690804e-03  1.9958307773153819e-03 -9.8411328940456704e-05 -2.1246092793812295e-03  -2.1238715536409597e-03 -1.7344099955267403e-05 -2.0030087229457537e-03  -3.7042796865000521e-03 -2.0558073890413638e-04 1.4131982555443099e-03  5.5166021784454414e-03 6.8158854418127457e-05 7.4336753401010598e-04  -9.1362203523725159e-04 1.8862484417721416e-04 -7.0115830658228973e-04  -4.0107364938294331e-03 -5.1172710331343649e-05 -1.6203659795294984e-03  -2.7575053106847470e-03 -4.7306577086955205e-05 -1.9306069556435132e-03  -2.5809845760816695e-03 -1.9208733222749602e-04 2.0153334660880096e-03  -5.5456686475343353e-03 1.6261744482307471e-04 -3.4085194087428097e-04  -6.6136613620637326e-05 4.0208806467059259e-06 -1.1219704253053156e-05  -3.6923307480657506e-03 8.2669949485197691e-05 9.0843174697404963e-05  4.9596892869060716e-03 -3.7740229401328799e-05 9.3931129961280919e-05  -2.3310829095928164e-03 -8.1624784655124990e-05 1.2043143950057149e-03  3.8956872287921329e-03 6.7972465037129307e-05 1.0451257075192776e-03  -2.3765740699258327e-03 -1.2266240759102224e-05 -2.0275723474268122e-03  -4.9767932659083450e-03 -2.2137508324753799e-05 -1.0809672283122679e-04  1.1347120231356522e-03 -8.7916826625338549e-05 -1.1927583171559130e-03  3.5939255140788533e-03 5.6484156134790511e-05 -1.3485245614035400e-03  -2.6624729643284035e-03 9.4156093991190954e-06 1.9033926382571362e-03  2.6490298276422176e-03 -7.4557872331556244e-05 1.7405197903983566e-03  -1.0220215431102841e-03 8.6412962927051259e-05 -1.9639234398484222e-03  1.0973503909147190e-03 1.0550341824605104e-04 3.0020359194702089e-05  1.9440222378303881e-03 -3.2140254668002222e-05 -2.0947631969282371e-03  -9.2352934031383275e-04 9.4903574630991888e-05 1.9447649682693198e-03  1.5847721938060070e-03 1.5336180529621647e-05 2.2145903605589692e-03  -3.6922524575217987e-03 -9.5885396133166913e-05 -1.0515135444337190e-03  -4.6670799833942638e-03 4.7529698801633616e-05 -1.2541509577354421e-03  4.5723996220147153e-03 -7.0077313511133361e-06 1.3989788340115290e-03  -7.2100825173495393e-04 -6.5474384088933039e-05 2.3285992882724738e-03  1.2921293561286181e-03 -1.1101859450233957e-04 9.7322551598660097e-04  4.2351787082041447e-03 -8.2907567777086317e-05 -1.1542643006106986e-03  4.5824074015284339e-03 -1.1635392798941788e-04 2.4885736063550709e-04  -4.4373341686208181e-03 -5.8608678249033351e-05 1.2230774447428122e-03  5.4628979994044459e-03 4.1281544245395956e-05 -5.2244550859544865e-05  -1.1714752217554011e-03 -9.5713247765485845e-05 -2.2326820725427697e-03  -5.1270648112386012e-03 4.6966363275681703e-05 7.0394833996669621e-04  4.9201191361174859e-03 -8.0818325742051057e-06 -9.4577277562426967e-04  4.5466735722945470e-03 1.1334335841747540e-04 -2.7360505591150124e-04  -4.7488708608083149e-03 -4.8444940930783469e-05 -1.3367902780985689e-03  1.1319860136194829e-03 5.0197169612731873e-05 -2.3472671220037024e-03  -2.3790669802797736e-03 1.2923923737350503e-04 -1.0271503394566018e-03  -2.3484785030694340e-03 1.3314428937387696e-04 8.9987857499747304e-04  2.4292327944162389e-03 1.3181944768336928e-04 1.6473927289725474e-03  -4.8501867542363308e-03 -1.2135200097383814e-04 4.8914404732054587e-04  2.0961830621125683e-03 1.2564349414231264e-04 -1.6366827253281233e-03  -1.7352024489979969e-03 -1.2324287564964502e-04 -5.1190426770563650e-04  -2.9012723581829220e-03 5.6359661821687690e-05 -2.0633288024760462e-03  5.0365372775179346e-03 -8.2446700306661107e-05 1.0035423150274586e-03  9.4421650781218911e-04 -4.9621358368500610e-05 5.8543974443427192e-04  2.5996224818195298e-03 -3.0974873744744998e-05 -9.7420014595011684e-04  </DataArray> 
</PointData> 
</Piece>
</UnstructuredGrid>
</VTKFile>