<?xml version="1.0"?>
<VTKFile type="UnstructuredGrid"  version="0.1"  >
<UnstructuredGrid>
<Piece  NumberOfPoints="201" NumberOfCells="657">
<Points>
<DataArray  type="Float64"  NumberOfComponents="3"  format="ascii">-10.08058097007573 -0.7846340251803071 540.1712275310728  -3.941770279370937 -1.129107351250891 -544.2045373405929  3682.510473383212 -4.863340770472894 -573.2285240144353  6612.073716429241 -4.968555160321686 -596.3407984143336  8552.998682541576 -4.713972197506852 -548.5713547717086  9648.526158362336 -4.91110795247406 -328.7061917689763  10004.56037829606 -6.930249790616084 1.53836010656964  9649.66871143153 -8.074467917476264 328.5562074250684  8552.953741711297 -6.433018970519237 545.7752930072925  6611.598762945112 -7.618988124214048 595.6607407189226  3684.721577900141 0.8026850288793398 567.6041407182444  4500.082045159696 -2880.545275764183 -593.6062165925  4520.710625060777 2251.002716314149 584.719718389401  9562.984781730054 -2311.284139591877 -164.1912620251836  7382.103084147764 -2656.01976459245 578.3075710642826  8899.198166974496 2374.094089797654 432.1432503075953  8875.316523176019 2371.328734909267 -436.3604146003851  5001.907303001127 2566.766421529511 -596.210993101799  1797.289871031963 -2658.245217439965 568.202796691462  7358.669480727503 -2458.125056826214 -578.9124405481324  5154.022324296024 -4840.897895524335 -578.6491678233936  7320.010212906199 -4568.999964084431 -469.9217173296873  4998.819039115117 -6505.151232993464 -451.819828562729  6864.396058516818 -5980.52183960241 -244.8772809220981  4299.587464397328 -7566.853522454573 -205.2004942906204  6087.530576168232 -6765.672948790214 52.9477586495522  3194.050815480473 -8055.051023320009 93.73194865634376  4716.158033837112 -7089.804841311427 344.7350119383887  1698.360227270332 -7959.657856178553 356.4466319088475  3140.259411698492 -6696.705613061231 526.9494730645984  -123.505674217367 -7193.83286106739 524.2704723098443  7203.05454065823 -5555.466859004045 295.5239241226071  7367.664802556434 2448.694130065426 580.4733542739096  7187.481429998368 4602.213575767961 484.0275103979761  8428.092982195309 4302.953738773641 242.8471966122373  1239.00010753901 -5598.198049114549 576.0553626508715  4487.292493051054 -4848.321077016279 580.0082669659919  5186.517728166476 4579.072799344037 585.549253277337  4757.367725621986 6435.94557925626 477.0265806027851  9582.890706861768 -2255.816513409704 163.5618061728021  8429.617272844176 -4632.302446011267 18.0789192586696  8925.67852298103 -2381.327801024929 -423.9368882542433  1784.801125560828 2659.966058057995 -561.3430008393952  7308.386467152777 2397.644311429522 -585.341151291191  7140.116706938151 4584.063430513485 -491.068805390538  2122.501971250637 -7758.415771931996 -395.402713122881  -1491.300329475322 -8047.469400276202 340.0911168955465  2286.376609316812 -5105.839822384697 -581.2644805765042  8375.09458224395 4361.494684412165 -252.5327067836777  6287.105552546638 6297.634942922778 -295.476268059579  4628.459730703862 6307.762681897847 -503.379448566157  3531.995994622195 7642.335238460088 -309.2876385940401  1606.972406198387 7358.129778209545 -488.0923521793526  442.3361507258916 8252.919139572585 -280.9159968183767  -1653.210437062216 7536.70634180557 -458.2408433401879  -2638.821909552888 8082.537777063511 -217.6448234851116  -4703.655911224083 7003.998146701278 -379.9466426426999  -518.1297327922833 8506.246401319911 20.5471975354234  -3365.567640064795 -6869.352912563367 498.5916138473223  -4471.165127830724 -7377.402822872817 279.7763474463459  -5411.346468354885 7164.827271017805 -109.4865413897094  -7188.911143597753 5661.079666324866 -273.8515500097757  -7578.19118817713 5602.646232926741 24.7419277372117  -8924.609313625193 3710.926342344863 -177.6275546128925  -9037.207688588212 3522.750477625886 161.9252541616845  -8148.139639180279 3600.460644523846 -456.832560678971  -7403.121631530389 5249.380932830981 339.2016656223361  -9501.300125855845 1565.074941353733 -316.0008281353299  -8565.467735270029 2959.929778792999 443.0280053307078  -8441.620081798206 1042.48218420103 -547.6261547798576  -9200.778228045285 -1137.395766054346 -430.813870866455  -6570.697885483957 4552.820852852733 541.4462221798458  -1622.884675961217 -4000.878643588878 567.6803500537113  -6222.356279339494 -5807.895848089473 436.9863611044958  -7736.883412650795 -1595.924940960778 -579.4603387286545  -8033.387772266164 -3640.6500825862 -468.9817073608667  -9682.118423896727 997.6837206262238 275.2437000506527  -3614.876209118851 6047.469096689768 -562.6249144039447  -7416.040427592656 1988.051247881617 587.580192447047  2344.84436689453 6154.792706900609 572.9430564863846  -9279.342795245171 -2912.55324227949 -188.1680467496585  -6531.60729338608 661.3929253632409 -600.5790515328446  -5087.122476191579 3632.905664782123 593.4578196500028  -6070.099237211629 -4062.263884139481 -582.982072796048  -6069.146048550084 -5809.401688005671 -454.1850503169028  -5106.854806134975 6534.128574434436 439.2681502651293  -2533.422992725413 -8244.772902695922 69.19669483766113  -5501.329002743911 624.1233853253274 587.4315617396163  -7659.626452531852 -852.6520321879618 590.3150038100796  -3652.133816716043 -6011.282582181122 -560.297331275736  -3493.444823377425 -7370.79569731411 -407.5962052593022  -3344.583631816557 -4005.161995652075 -589.2416991490294  5087.60710921618 7339.87487729946 -30.14928785448626  -6863.609437431351 -6100.817470528071 189.2257003757863  -8329.720138865767 -4159.746679951671 327.8624784335332  1850.483723046382 7597.509864125318 441.1082231702703  -707.3910038381315 7019.917580871866 530.7832676606231  -256.6600489026971 5523.080194187379 585.9986757671898  -3197.412578920902 2438.387892408684 579.5587266542692  -4921.831610608212 -4961.910462999096 580.6031542833427  2573.271879150016 6033.518088093984 -571.4370019668893  -5654.01449135944 -6876.90190898373 -229.8884088569692  -848.2599614493151 4817.192190507351 -580.1804305844291  -1966.632187422814 2146.265102040229 -566.5762078498866  -1151.994656895546 8076.516327264168 337.6112993847944  -2535.772107524728 -1532.810432725294 556.820641837954  -763.0714815682545 -7299.540837368636 -509.2210943463045  -5202.74100004977 -2348.669889741332 597.8404256010435  -7443.174483805386 -3562.938888797129 535.6264188501739  -9007.35131606611 -1674.727624875389 451.2572907745617  -9590.745646224432 -2132.776213179701 156.3812324739689  -9945.73238163753 -269.0663863454607 -98.67980380332048  -4340.23280503263 4047.758714534499 -594.9727735646759  -6270.28403999668 4312.733462423054 -568.5906982082223  -877.6813700712951 -8139.454935021545 -329.9630892738078  -375.9477358052078 6694.716531321124 -558.7814525043839  4034.408446789451 7550.441208707767 268.7056369517075  8886.33297491202 -2276.500855553857 438.1729572675152  581.58071684769 -2795.698101200188 -558.0744373034901  1583.444600388275 -8342.256037946094 -162.590912056032  -3327.36217797144 5851.208394147809 570.489879943946  9597.983401826656 2161.116328300615 -168.5565816202177  6460.346883299863 6231.314377471853 271.5533527608375  7547.588743322291 5608.501943016297 -12.78664141028695  -7711.912217627794 -5132.979567793863 -266.4967195266353  -3338.638409275255 8032.710283760674 80.95096555584767  -5602.922658248576 6963.637758539606 194.1188535944521  -606.8212033718346 -5714.140815231933 -577.2674133494119  -2790.469060651125 -1106.154917937726 -563.4870923797806  -5606.003831730172 -1698.4752188917 -596.3024244048959  2308.066831015273 8283.015700697932 -54.66097351886359  259.7232058535583 -8485.018934045953 117.1602968400808  5789.785917610723 -5607.942957689145 505.6877741322577  9607.170754208782 2189.379642487952 149.6303965876736  4996.738256809531 -2550.206638516981 599.5525204739429  -8468.26637535346 -4571.317237516421 27.57758574126662  -1971.698208578076 -6068.978321144713 570.9428475557694  5334.417019980436 4443.142774891772 -583.898969282459  -8903.363183383335 716.5619661101948 498.3742552174771  2396.121630791928 -6701.981376000551 -540.3281484828382  2787.010415220909 4553.24850095961 584.9888402030837  1423.76611227009 8282.287165036929 216.7235300666688  -6454.55961611188 5522.754992876632 -456.4891854014798  8467.688895488875 -4157.941061286012 -276.6849404589049  -186.1666002068579 2570.385293954578 549.7929345412992  7830.397308535885 -4126.55348834579 447.330706944069  -9702.848947903658 2062.422996672193 -26.75464321645712  -5177.24368926852 -7324.218282249222 8.033749859061887  -3180.082240591795 -8002.075003060545 -175.5511636261287  8986.379249457772 3777.793702992995 -8.653699225279512  -2549.612787072126 4668.830477424663 585.8208320308371  3174.542263077761 4243.128058191776 -590.27964965015  -3991.365128754369 727.8728916837412 -570.9073428603198  -3736.201844845888 7564.973227078757 322.448293426702  8616.735660962275 -3875.201441454867 291.294674723118  -697.3908719662365 -8481.102354647817 -106.2493292647765  -7012.451628372566 2403.311284255821 -587.1221292056169  -5027.058496182462 2122.405389752063 -595.4499977188406  -2940.986867848481 7112.013966743119 484.6431749321667  -7045.75677856112 -6072.048951534101 -59.25382125850417  -1.917237495542554 0.3756248582650298 -0.7031439109764711  -3673.417526581316 -3750.93262729407 17.39903394391168  5547.909905037057 1462.915022803878 -3.721052937510747  -2246.996040535876 3971.882647588703 143.088015424631  4176.948833260369 -2814.639003483902 132.205044993003  -2834.453835011656 428.9505656642893 -254.3200828794088  -5707.126470532853 747.6380523215464 0.2628511451713399  1103.342316964174 4480.358821251692 -125.4608685189556  3943.256782090765 -2229.732933835913 -189.0502813093514  -3131.423173106244 -431.8318556217838 252.7701189015933  2930.325902370825 3353.560588425376 222.2922676125264  -1087.239287027557 -3841.002449437518 -238.1845490513043  937.5017585113667 -5391.999729858714 0.757738356017161  2392.741000537485 1502.192882861432 -284.5582720125725  -915.950457741497
[...]
<PointData  Vectors="Coriolis"> 
<DataArray  type="Float64"  Name="Coriolis"  NumberOfComponents="3" format="ascii">5.7573099962183962e-12 2.5120957469479979e-10 0.0000000000000000e+00  -3.4151563035910751e-11 1.1202304230439470e-10 0.0000000000000000e+00  -1.7362086643243298e-10 -2.8089938601500753e-08 0.0000000000000000e+00  -1.6320429859779565e-10 -4.3567459459170452e-08 0.0000000000000000e+00  -1.6595836669854830e-10 -4.7890096499851610e-08 0.0000000000000000e+00  -1.5713280310842958e-10 -4.8298711582798483e-08 0.0000000000000000e+00  -1.7025705610065748e-10 -4.8158645457539760e-08 0.0000000000000000e+00  -1.8963954761536285e-10 -4.8314390329264309e-08 0.0000000000000000e+00  -1.9092070467264065e-10 -4.7890740284789462e-08 0.0000000000000000e+00  -2.4025088261007791e-10 -4.3593376220444301e-08 0.0000000000000000e+00  -4.7435941952679831e-11 -2.8145700584048209e-08 0.0000000000000000e+00  -8.6171166451917020e-09 -3.1384851315492583e-08 0.0000000000000000e+00  6.9178611800927933e-09 -3.2428316954808360e-08 0.0000000000000000e+00  -4.0097093390490618e-09 -4.6729033961496323e-08 0.0000000000000000e+00  -6.1045850107300694e-09 -4.3475856081289003e-08 0.0000000000000000e+00  4.3468194627316682e-09 -4.6217916125097525e-08 0.0000000000000000e+00  4.3486769782574966e-09 -4.6297988199844961e-08 0.0000000000000000e+00  7.4588434372958141e-09 -3.4531517088258328e-08 0.0000000000000000e+00  -9.2282900556028192e-09 -1.3828281047799659e-08 0.0000000000000000e+00  -5.8031301182018621e-09 -4.3751829420201632e-08 0.0000000000000000e+00  -1.1460270954347459e-08 -3.1343773155451089e-08 0.0000000000000000e+00  -8.7354854906958669e-09 -3.9390045294511922e-08 0.0000000000000000e+00  -1.1850650181082425e-08 -2.6874435243998209e-08 0.0000000000000000e+00  -9.6663984926488227e-09 -3.4237823766745532e-08 0.0000000000000000e+00  -1.1583717631224505e-08 -2.1557917592951985e-08 0.0000000000000000e+00  -1.0328567263131808e-08 -2.9858866343598134e-08 0.0000000000000000e+00  -1.1866431898009020e-08 -1.5753040056297345e-08 0.0000000000000000e+00  -1.1702093843091998e-08 -2.4326110057472351e-08 0.0000000000000000e+00  -1.3034567034169352e-08 -8.7566661892759075e-09 0.0000000000000000e+00  -1.3628495340957805e-08 -1.8018973643690316e-08 0.0000000000000000e+00  -1.4527785593680655e-08 6.9577130840516012e-10 0.0000000000000000e+00  -9.2630574106970418e-09 -3.6350348034794376e-08 0.0000000000000000e+00  5.5489774958557764e-09 -4.3915290283528317e-08 0.0000000000000000e+00  8.7239952080174326e-09 -3.8878837097146405e-08 0.0000000000000000e+00  7.0502314577995882e-09 -4.1722065662336605e-08 0.0000000000000000e+00  -1.4900988722965636e-08 -8.2158136339052556e-09 0.0000000000000000e+00  -1.2151663300461154e-08 -2.8457760994761487e-08 0.0000000000000000e+00  1.0938775586303910e-08 -3.2076536749308639e-08 0.0000000000000000e+00  1.1972270224457229e-08 -2.5949414581310535e-08 0.0000000000000000e+00  -3.9201587328986834e-09 -4.6818836352538042e-08 0.0000000000000000e+00  -7.4610514437104963e-09 -4.1063665147987878e-08 0.0000000000000000e+00  -4.5510299316129199e-09 -4.6493844599850869e-08 0.0000000000000000e+00  9.2552320175307947e-09 -1.3378871504210939e-08 0.0000000000000000e+00  5.5564579558337250e-09 -4.3805609306497363e-08 0.0000000000000000e+00  8.7820205393506746e-09 -3.8780895864971925e-08 0.0000000000000000e+00  -1.3169386514270395e-08 -1.1156048039191167e-08 0.0000000000000000e+00  -1.3026237397127306e-08 7.9052853236224174e-09 0.0000000000000000e+00  -1.3953853856204858e-08 -1.5494691423642739e-08 0.0000000000000000e+00  7.2018315208490607e-09 -4.1502540690331008e-08 0.0000000000000000e+00  1.0082215329608873e-08 -3.1768293072800134e-08 0.0000000000000000e+00  1.2134669558202911e-08 -2.5829254349484994e-08 0.0000000000000000e+00  1.2000491178291208e-08 -1.8053167483005470e-08 0.0000000000000000e+00  1.3725862917987114e-08 -8.8287712505494645e-09 0.0000000000000000e+00  1.2567261531168544e-08 -1.9403154260063107e-09 0.0000000000000000e+00  1.3699923393549873e-08 9.4280788875216897e-09 0.0000000000000000e+00  1.2277219734327377e-08 1.3745730290834923e-08 0.0000000000000000e+00  1.2104422261993775e-08 2.4838486320336710e-08 0.0000000000000000e+00  1.2086226238280738e-08 2.9731633273335678e-09 0.0000000000000000e+00  -1.3375609082875526e-08 1.9060498299169751e-08 0.0000000000000000e+00  -1.1854889436039692e-08 2.2763281568084315e-08 0.0000000000000000e+00  1.1166365573218472e-08 2.6984701829242619e-08 0.0000000000000000e+00  9.7639043557199166e-09 3.6098804213143104e-08 0.0000000000000000e+00  9.2254542379360703e-09 3.6951343583477095e-08 0.0000000000000000e+00  6.4630470627378773e-09 4.3651646433139018e-08 0.0000000000000000e+00  6.1639597029443107e-09 4.4047218706444484e-08 0.0000000000000000e+00  7.1944009886663933e-09 4.3011984018115464e-08 0.0000000000000000e+00  9.3619249639941471e-09 3.7641739947636771e-08 0.0000000000000000e+00  3.1200459919202517e-09 4.7122734549106617e-08 0.0000000000000000e+00  5.9175284060192922e-09 4.4789460065135556e-08 0.0000000000000000e+00  2.5059155856721538e-09 4.7047397552793615e-08 0.0000000000000000e+00  -2.1046625339587023e-09 4.7328717660622250e-08 0.0000000000000000e+00  9.9469748130760280e-09 3.7516473446456467e-08 0.0000000000000000e+00  -1.2516800423084998e-08 1.2090418684868884e-08 0.0000000000000000e+00  -1.0726505617916815e-08 3.2987558785561221e-08 0.0000000000000000e+00  -3.6615868921828514e-09 4.5510075864649137e-08 0.0000000000000000e+00  -7.1666316933900847e-09 4.2621931332454712e-08 0.0000000000000000e+00  2.0661540982479215e-09 4.7448211002431402e-08 0.0000000000000000e+00  1.3576075620477683e-08 2.1887562443365278e-08 0.0000000000000000e+00  5.0063926594487639e-09 4.4354321706250779e-08 0.0000000000000000e+00  1.4208201027395039e-08 -1.4368315291290134e-08 0.0000000000000000e+00  -5.0347878633758698e-09 4.4995371424128299e-08 0.0000000000000000e+00  1.8626303311106315e-09 4.2746980557639243e-08 0.0000000000000000e+00  1.0210026569351852e-08 3.3417650057420320e-08 0.0000000000000000e+00  -9.7116467906718225e-09 3.6619909930984051e-08 0.0000000000000000e+00  -1.0825656131361906e-08 3.2500373044188011e-08 0.0000000000000000e+00  1.2108268757837044e-08 2.7426758606592114e-08 0.0000000000000000e+00  -1.2082666837134147e-08 1.2681068696948804e-08 0.0000000000000000e+00  1.9852820633805553e-09 3.8470314667576934e-08 0.0000000000000000e+00  -1.9670211195910156e-09 4.5957182608558091e-08 0.0000000000000000e+00  -1.3418267523325948e-08 2.1988105144176266e-08 0.0000000000000000e+00  -1.2776691554305734e-08 1.8614549290035361e-08 0.0000000000000000e+00  -1.1822464604706078e-08 2.3360063158455961e-08 0.0000000000000000e+00  1.0706967681981206e-08 -2.5127586660825243e-08 0.0000000000000000e+00  -9.8371529961899248e-09 3.3918009764304860e-08 0.0000000000000000e+00  -7.3831973654984115e-09 4.1907021983054986e-08 0.0000000000000000e+00  1.3293265604179200e-08 -9.8941964069962478e-09 0.0000000000000000e+00  1.4478290197791978e-08 4.5088963744170847e-09 0.0000000000000000e+00  1.4736071144983666e-08 1.8481244321124370e-09 0.0000000000000000e+00  8.2310371947251169e-09 2.3798380621820311e-08 0.0000000000000000e+00  -1.1860651602376550e-08 3.0104956756366292e-08 0.0000000000000000e+00  1.4145885317458551e-08 -1.5839163726912710e-08 0.0000000000000000e+00  -1.1010080945458485e-08 2.8246668347415386e-08 0.0000000000000000e+00  1.4119676639222997e-08 5.9918138736760286e-09 0.0000000000000000e+00  7.6953394107270546e-09 1.5203693112765023e-08 0.0000000000000000e+00  1.2915429405098716e-08 6.4153347054862124e-09 0.0000000000000000e+00  -5.6678346192225691e-09 1.9725091806311728e-08 0.0000000000000000e+00  -1.4411745682801532e-08 4.2933153568152937e-09 0.0000000000000000e+00  -6.9701295721037512e-09 3.5501479593486140e-08 0.0000000000000000e+00  -7.6985984884466950e-09 4.1850813405273679e-08 0.0000000000000000e+00  -3.2086781277957174e-09 4.6765113106380458e-08 0.0000000000000000e+00  -3.6846646754840146e-09 4.6208296207162257e-08 0.0000000000000000e+00  -2.8541623562531500e-10 4.7558606528979774e-08 0.0000000000000000e+00  1.1351243233547403e-08 2.9075843876880527e-08 0.0000000000000000e+00  1.0006092139283995e-08 3.7025881003184581e-08 0.0000000000000000e+00  -1.3057126150194434e-08 4.6495795682799076e-09 0.0000000000000000e+00  1.4719728386906705e-08 2.5146828208585754e-09 0.0000000000000000e+00  1.1619458219025512e-08 -2.0420895080974660e-08 0.0000000000000000e+00  -4.3789975316506532e-09 -4.6589601057434284e-08 0.0000000000000000e+00  -9.8089367166117868e-09 -4.2450746711560813e-09 0.0000000000000000e+00  -1.2342731368158834e-08 -7.8121375893299292e-09 0.0000000000000000e+00  1.3909768198347509e-08 2.0735444959795786e-08 0.0000000000000000e+00  3.5838033658704570e-09 -4.6728526827970155e-08 0.0000000000000000e+00  9.8905531136895551e-09 -3.2454490625041287e-08 0.0000000000000000e+00  8.6024672297493769e-09 -3.6774902596593064e-08 0.0000000000000000e+00  -8.7059351827902951e-09 3.8387352062047835e-08 0.0000000000000000e+00  1.1953438122658527e-08 1.6958306832106063e-08 0.0000000000000000e+00  1.1150286947475539e-08 2.8080710404867523e-08 0.0000000000000000e+00  -1.5047356806806595e-08 3.9698649387271381e-09 0.0000000000000000e+00  -4.0115339175607773e-09 2.1501445146312105e-08 0.0000000000000000e+00  -4.9412926230975586e-09 3.8343658809686615e-08 0.0000000000000000e+00  1.1841615803494402e-08 -1.1291953036186484e-08 0.0000000000000000e+00  -1.2376212220981990e-08 -1.1510372238246726e-09 0.0000000000000000e+00  -1.1136783402918832e-08 -3.2059689057199606e-08 0.0000000000000000e+00  3.6326330988079027e-09 -4.6665053433324720e-08 0.0000000000000000e+00  -7.5302737972534012e-09 -3.4329393062001196e-08 0.0000000000000000e+00  -7.4980053281562888e-09 4.1065944468943420e-08 0.0000000000000000e+00  -1.4626008243029235e-08 1.2492286481987701e-08 0.0000000000000000e+00  1.0671605730875742e-08 -3.2987728583392185e-08 0.0000000000000000e+00  1.6527979084362530e-09 4.7522211652243379e-08 0.0000000000000000e+00  -1.4211117600215802e-08 -1.4045819548649512e-08 0.0000000000000000e+00  1.2975553527902701e-08 -1.9017850483853503e-08 0.0000000000000000e+00  1.2251468149151521e-08 -6.9018506118819283e-09 0.0000000000000000e+00  1.0662496683865830e-08 3.4745540729797530e-08 0.0000000000000000e+00  -7.0615203658172525e-09 -4.2367562807206072e-08 0.0000000000000000e+00  9.0764707145712390e-09 1.5093682429039068e-09 0.0000000000000000e+00  -7.9028633473532569e-09 -4.1454611961679017e-08 0.0000000000000000e+00  3.8260038264558691e-09 4.6529764111716146e-08 0.0000000000000000e+00  -1.1168968304631006e-08 2.5441992834075680e-08 0.0000000000000000e+00  -1.2077373594021603e-08 1.5993606958162738e-08 0.0000000000000000e+00  6.0060530171966603e-09 -4.3535939974548269e-08 0.0000000000000000e+00  1.3344711392811606e-08 1.7705661941190312e-08 0.0000000000000000e+00  1.2162418932870630e-08 -2.1905110751965240e-08 0.0000000000000000e+00  2.6224525873497418e-09 2.9924161396215945e-08 0.0000000000000000e+00  1.2394222619687090e-08 1.9613338871834525e-08 0.0000000000000000e+00  -6.6960876824272186e-09 -4.3143410401570071e-08 0.0000000000000000e+00  -1.2392414508232269e-08 3.5932411457346165e-09 0.0000000000000000e+00  6.2533349787092668e-09 4.2989920892653736e-08 0.0000000000000000e+00  6.6733009830546481e-09 3.4808878626883266e-08 0.0000000000000000e+00  1.3528000716500942e-08 1.6685095586447341e-08 0.0000000000000000e+00  -9.5782024729681626e-09 3.4387697542052517e-08 0.0000000000000000e+00  -1.1812684984727769e-11 9.0001665229495520e-11 0.0000000000000000e+00  -1.1139654863231158e-08 2.5662816717393698e-08 0.0000000000000000e+00  4.3316982456359573e-09 -3.8507026936859498e-08 0.0000000000000000e+00  1.2293671280988377e-08 1.6389159359186839e-08 0.0000000000000000e+00  -8.7187356805490004e-09 -2.9765590603669875e-08 0.0000000000000000e+00  1.6587437922060933e-09 2.2231924718220067e-08 0.0000000000000000e+00  2.3745674318032260e-09 3.9528544762252807e-08 0.0000000000000000e+00  1.3625769626095859e-08 -7.8651798290949935e-09 0.0000000000000000e+00  -7.1783350394023877e-09 -2.8999105808380261e-08 0.0000000000000000e+00  -1.5392529670818166e-09 2.4211003487101925e-08 0.0000000000000000e+00  1.0558966660366461e-08 -2.1406837747555481e-08 0.0000000000000000e+00  -1.2261038414326461e-08 8.1206065356670410e-09 0.0000000000000000e+00  -1.4850865344063086e-08 -6.4646333344304253e-09 0.0000000000000000e+00  5.3144358568672373e-09 -1.8570381220577073e-08 0.0000000000000000e+00  -1.3235009646851775e-08 6.6705318226894421e-09 0.0000000000000000e+00  -2.0496848152187123e-09 -1.7033830984721476e-08 0.0000000000000000e+00  1.1860429906642899e-08 2.6408969288957741e-08 0.0000000000000000e+00  -5.7061838017070111e-09 3.8467821413285689e-08 0.0000000000000000e+00  5.4236991812143345e-10 -4.0254516829296034e-08 0.0000000000000000e+00  9.3313596326055587e-09 6.6556893754008583e-09 0.0000000000000000e+00  1.4716855918023297e-08 -7.3724364925020982e-09 0.0000000000000000e+00  9.4307690399496532e-09 -3.2699127595738466e-08 0.0000000000000000e+00  1.1583063108863550e-08 -2.9774754227076194e-08 0.0000000000000000e+00  6.6426918605920168e-09 3.7747125286260089e-08 0.0000000000000000e+00  -4.7258304606584324e-09 -4.2685861140232050e-08 0.0000000000000000e+00  1.2349191023122367e-08 1.0553665756136772e-08 0.0000000000000000e+00  -5.2602482465172034e-09 4.1755560748600465e-08 0.0000000000000000e+00  7.9458946730889657e-10 -4.2906745355920740e-08 0.0000000000000000e+00  -1.1720883994305395e-08 -2.9556695372157091e-08 0.0000000000000000e+00  5.2363368187977766e-09 4.0588348769968941e-08 0.0000000000000000e+00  -7.0409334808967289e-09 -1.1923134307844040e-08 0.0000000000000000e+00  -1.4555630339598849e-08 1.4062668981192441e-08 0.0000000000000000e+00  -1.4625017751961957e-08 1.3221508273419416e-08 0.0000000000000000e+00  -1.4216441937115508e-08 -1.6473200409121541e-08 0.0000000000000000e+00  1.1218104360492056e-08 3.3208130176810197e-08 0.0000000000000000e+00  -1.4296559796075578e-08 -1.4348380418228479e-08 0.0000000000000000e+00  1.4792615777711745e-08 9.7267096965865334e-09 0.0000000000000000e+00  -7.9357261659808237e-09 2.7829231155578080e-08 0.0000000000000000e+00  7.5754024989382749e-09 -3.9560287294820849e-08 0.0000000000000000e+00  1.0211540010765006e-08 -6.2487884107376330e-09 0.0000000000000000e+00  5.6582330051045174e-09 -1.9785699407941234e-08 0.0000000000000000e+00  </DataArray> 
</PointData> 
</Piece>
</UnstructuredGrid>
</VTKFile>