<?xml version="1.0"?>
<VTKFile type="UnstructuredGrid"  version="0.1"  >
<UnstructuredGrid>
<Piece  NumberOfPoints="201" NumberOfCells="657">
<Points>
<DataArray  type="Float64"  NumberOfComponents="3"  format="ascii">-25.01824490417817 3.809644464476161 690.7828700626324  -30.08270235953317 -3.364502755733513 -696.2412632690516  6185.195431237205 4.351147391188057 -695.1896137985489  10681.21190716288 -0.8868838610983407 -700.6851547597893  13326.50938642278 -5.261719329121838 -617.4302727959256  14692.18257178563 -3.919577356030182 -339.0773394717751  15118.24378128556 -2.168691130799017 53.97847936797793  14693.2673935507 -3.067875243964096 445.6629139823482  13325.81794223141 -4.338886979234871 720.0880626845415  10686.8614424898 2.030323065884167 792.93600913045  6185.057621312802 3.381067600325462 754.6177438577824  7513.143999505479 -1435.19847115731 -671.9586219422496  7555.308294117845 1113.665336427749 749.1476337622845  14570.42209429398 -1628.945986553452 -135.7716686892624  11769.24089956633 -1572.106144713736 724.6665030611779  13742.59573250309 1584.814078926035 552.028480704889  13714.34873346607 1585.691177913981 -454.476096404856  8288.354487718225 1309.697723455797 -678.4111359226658  3079.462115885347 -1192.079165705706 694.1381507994521  11734.07947970144 -1449.220933064185 -636.3000912129955  8550.661599407675 -2596.157168672668 -577.7437573580187  11658.90730107418 -2803.191277892265 -454.2919376290361  8304.387487365722 -3655.39589232474 -382.50983566656  10976.26490241967 -3708.513259837575 -190.1435612914987  7207.712985931622 -4265.544225147274 -140.4352979089813  9864.582826487531 -4093.694062730714 90.61486467696568  5435.571670188634 -4413.118628437342 100.1561666824113  7858.351166570686 -4011.699810961369 338.6368081512135  2941.797967150555 -4153.429753552615 297.9421786547893  5385.879908823082 -3470.356027175657 502.5590251916099  -208.9255743843951 -3584.004599211399 448.8296610015734  11458.33919458979 -3478.880092644672 343.4554192861492  11751.03337425561 1451.705519587565 737.5126562410728  11486.45615352527 2807.336467953573 564.4193286453452  13088.9603860881 2870.136010381838 312.4275246829721  2157.818749518891 -2664.425477719773 596.5314557125729  7551.036242539823 -2504.377584973206 654.7288781845571  8611.020848966291 2453.453974505265 669.8580156368226  7954.315179514149 3560.068366345351 481.0104435183371  14597.2868598539 -1590.770766405302 239.7787162739271  13091.2407223219 -3094.666474241374 70.74490765968774  13796.50487399728 -1591.280556235992 -439.0245968570176  3042.750440179318 1199.628083316962 -663.3784237594341  11674.59748697272 1404.362046639415 -643.5630887065495  11412.21477610716 2787.940705545136 -478.1531500941227  3668.90670187383 -4052.199466067601 -304.2675712167231  -2589.291499370451 -4191.418587259588 254.2110302159209  3943.758308899591 -2446.651873380542 -588.0717179985126  13021.19295117483 2894.586658350242 -219.5901998375978  10180.88106060795 3807.468792798813 -237.8586050761396  7760.410117674782 3447.973071623152 -438.5676759338049  5997.594789264709 4175.573550797205 -230.123054441781  2792.26915613065 3748.948134412164 -399.6522046240253  768.072605580922 4309.356764698334 -213.8122208826261  -2871.35653226625 3863.076448084798 -397.1233893093582  -4519.506590781829 4356.807231714451 -193.0510424676454  -7829.174214469971 3937.150869569387 -372.1026538819509  -897.0368269849843 4485.329948593881 9.743353673965499  -5752.20204640862 -3622.323619908304 424.4820875721584  -7460.213500900421 -4171.533410039423 211.1707464180829  -8870.665060370753 4211.009230496412 -133.1491497406394  -11424.42751139628 3540.063989835624 -318.8025804531612  -11929.19375134796 3602.798563444924 -22.47661808160696  -13739.47624878155 2537.955564800974 -246.6200750590308  -13878.76986800554 2422.587088920321 129.0314516374249  -12764.24119111773 2301.951528689621 -562.2347455218062  -11725.43196742251 3296.806228200133 300.7164310289958  -14495.53597668913 1079.501586144294 -421.6910350216696  -13309.19263158053 1936.333983751626 456.8051049810142  -13181.42760333851 651.1112164070673 -716.4856878129577  -14138.56424440454 -770.4599912765254 -567.4699302733604  -10631.48813649278 2642.361793984008 536.8575682183657  -2802.68589976211 -1844.975625868266 628.8330495732341  -10098.34716792429 -3418.151140448676 387.1732000323752  -12250.41270261433 -964.9365530111845 -755.2124834715713  -12625.51499116011 -2312.497838014862 -574.2835539176676  -14724.27116472351 691.6061466287742 271.4408113817149  -6143.993465970441 3129.954260369592 -572.0099546619824  -11810.71799022781 1168.012183420565 663.3991492535621  4052.714760930665 3048.742328469785 561.8344297198071  -14202.19692697474 -2027.350074955249 -265.5463190968094  -10568.01129229681 364.0640359179489 -794.3901116639241  -8431.3705737124 1874.133651141096 641.5437786324968  -9909.025528366108 -2258.323513564358 -688.5341348974054  -9883.2670343877 -3391.493922082349 -490.9023894607691  -8449.218147417578 3684.426135994845 371.4059595417838  -4347.068469865731 -4455.869285915915 32.82502583122427  -9037.414449919565 328.2198786787329 701.805109194013  -12153.85662620211 -514.5136874609607 673.3092884494109  -6206.05213423089 -3117.530937330675 -576.4643160157314  -5939.677864118722 -3985.154657553347 -377.4479380625197  -5692.103992560144 -1929.985225954028 -690.2259079240714  8424.498176214347 4269.979013437892 12.2791709714542  -10972.0676587429 -3781.802481970049 135.7774072830726  -12990.59418708592 -2732.645186298137 306.2155772740467  3210.99260092441 3929.958190851777 378.9816069442325  -1228.352034081637 3487.079761410811 459.791727091499  -437.5866944397489 2610.531725318422 583.7103196831765  -5406.777841638471 1140.89600396823 676.8817857526047  -8183.832934114767 -2641.557144534308 576.5888461002061  4434.970424977369 3000.906195853153 -530.9330487016479  -9236.270991678826 -4058.227783097575 -248.3331254074989  -1457.433203303918 2235.241601798109 -625.545223298595  -3357.082656467494 968.5734555044688 -705.8523133481724  -1996.337461798427 4197.691413725035 255.7187983202643  -4309.883783154635 -693.8586726917504 678.6483897479927  -1328.045983131473 -3656.967982314114 -439.3671162259368  -8593.103345010446 -1200.812720290954 684.8913612659791  -11852.48281695041 -2149.867212835297 556.9203996511363  -13893.71974483796 -1122.940263853052 484.3068109488418  -14595.56108257026 -1508.734375530214 128.002075369793  -15046.49849916538 -198.8244735907724 -169.5459927220023  -7279.613093421333 2041.078396083728 -701.2214748065708  -10202.96099157668 2438.433742064905 -662.6070251885338  -1526.398220214963 -4223.086403510939 -264.4862263237382  -651.557319443131 3284.01975046903 -506.7772775197614  6794.486297547019 4204.801205108985 257.5601489661378  13745.73813460516 -1520.604690164506 561.6813783961511  981.28452479825 -1242.659897794975 -663.3449815403904  2740.481772387271 -4415.021007282885 -110.6358612328346  -5679.612608971636 2966.386223248433 537.6462487156628  14597.25272127253 1529.136252891278 -140.6526423738443  10422.32780479065 3802.261465687548 302.6586769854881  11899.94831766078 3622.070883194432 34.53424965206441  -12153.26749790352 -3285.282511139729 -320.4347772910292  -5657.738188836953 4428.670445715245 40.39894602351674  -9155.371333311126 4109.361874072535 135.7180191951606  -1061.886369690205 -2705.691670669659 -581.1564804694415  -4723.229299998865 -505.1088433380245 -732.8957557982577  -9209.511385936255 -883.7600303912336 -778.684792172825  3970.825101874182 4452.174536516382 -23.75653290096539  451.3203400586534 -4460.572567489338 89.35301987246464  9494.205118950425 -3196.506062723932 548.732967081274  14607.23123312128 1548.413885509655 223.7300957589053  8280.941684952131 -1299.564431056726 756.7627438988824  -13153.48081100499 -3061.672347750145 -20.45876515246587  -3426.808073993765 -2972.03100320252 532.314774296804  8835.653434549084 2388.719023428099 -596.1878997546614  -13769.00817667358 464.3766942436948 550.4353493086371  4143.362132668863 -3384.910312450329 -468.8843947384884  4775.742256044561 2183.550889178387 656.8163928092073  2462.512780810183 4373.693207020116 178.2461367343319  -10442.83908511731 3268.036045044861 -504.8100405823128  13163.61393059916 -2758.871541768572 -248.2132965150891  -303.5591682274078 1143.763978341418 669.477822038345  12343.59362381865 -2593.944275370753 538.4673862979946  -14725.26742319137 1459.634356119793 -82.91408008349147  -8515.407462199757 -4280.703243381304 -28.80159579806948  -5412.840440036924 -4382.273844175577 -165.4930673471215  13800.65098044066 2608.108404675149 41.98932288177224  -4371.756803461007 2238.273943748654 612.1711244665559  5417.583972084793 2050.97078173535 -622.481786146059  -6682.580126882557 341.6437297766498 -761.8260700834037  -6308.472341021446 4157.439751693865 244.5106481848085  13359.71521183254 -2582.644843582512 369.0457579670584  -1212.298334596101 -4461.267645290416 -86.23026126523948  -11263.74363873848 1372.586960559712 -750.9128394039426  -8321.531980007905 1070.488880417096 -765.7954634308778  -5037.509951066945 3723.381486830235 401.8154469117859  -11216.98012850106 -3808.274955344649 -103.2108845151904  -21.56440786937016 -0.6811719925384246 -1.206261799540082  -6215.416731079311 -1820.496597792794 -9.755770668358128  9123.554467956161 750.4851047568889 38.38273811619604  -3851.788961883516 1857.408928006138 143.715782942565  7013.016121183702 -1373.608965175621 193.2025187303909  -4803.106208302335 195.7703468487942 -351.2965148502045  -9356.154647101834 386.9700449017345 -41.85573123370457  1903.946282013696 2059.722521674397 -127.9916888750772  6629.544140148949 -1071.452910205064 -199.8468653074363  -5289.506826081286 -200.7280475599164 296.8639424987811  4988.588245283079 1580.302608779077 284.0924814206578  -1880.612284874558 -1754.165040339861 -279.6928641883748  1625.373756188514 -2528.390619798918 8.122276764504482  4069.988165114391 684.0447491618862 -338.5370
[...]
<PointData  Vectors="Tidal Force"> 
<DataArray  type="Float64"  Name="Tidal Force"  NumberOfComponents="3" format="ascii">0.0000000000000000e+00 8.9721898626590974e-15 0.0000000000000000e+00  0.0000000000000000e+00 -7.9247360761578673e-15 0.0000000000000000e+00  0.0000000000000000e+00 1.0235119856669151e-14 0.0000000000000000e+00  0.0000000000000000e+00 -2.0949075730024575e-15 0.0000000000000000e+00  0.0000000000000000e+00 -1.2389881931757392e-14 0.0000000000000000e+00  0.0000000000000000e+00 -9.2295642216279707e-15 0.0000000000000000e+00  0.0000000000000000e+00 -5.1115744781259966e-15 0.0000000000000000e+00  0.0000000000000000e+00 -7.2244384017541890e-15 0.0000000000000000e+00  0.0000000000000000e+00 -1.0205192605626258e-14 0.0000000000000000e+00  0.0000000000000000e+00 4.7823747166541817e-15 0.0000000000000000e+00  0.0000000000000000e+00 7.9546633272007602e-15 0.0000000000000000e+00  0.0000000000000000e+00 -3.3760393210967975e-12 0.0000000000000000e+00  0.0000000000000000e+00 2.6196938909399905e-12 0.0000000000000000e+00  0.0000000000000000e+00 -3.8318014272290037e-12 0.0000000000000000e+00  0.0000000000000000e+00 -3.6981044259199867e-12 0.0000000000000000e+00  0.0000000000000000e+00 3.7279837933612106e-12 0.0000000000000000e+00  0.0000000000000000e+00 3.7300487736831700e-12 0.0000000000000000e+00  0.0000000000000000e+00 3.0808189604590829e-12 0.0000000000000000e+00  0.0000000000000000e+00 -2.8041534954679610e-12 0.0000000000000000e+00  0.0000000000000000e+00 -3.4090251371962733e-12 0.0000000000000000e+00  0.0000000000000000e+00 -6.1069907605138445e-12 0.0000000000000000e+00  0.0000000000000000e+00 -6.5939969167348301e-12 0.0000000000000000e+00  0.0000000000000000e+00 -8.5986678423927589e-12 0.0000000000000000e+00  0.0000000000000000e+00 -8.7236141154968335e-12 0.0000000000000000e+00  0.0000000000000000e+00 -1.0033936904258411e-11 0.0000000000000000e+00  0.0000000000000000e+00 -9.6296855826212304e-12 0.0000000000000000e+00  0.0000000000000000e+00 -1.0381069074555127e-11 0.0000000000000000e+00  0.0000000000000000e+00 -9.4368104350999996e-12 0.0000000000000000e+00  0.0000000000000000e+00 -9.7701940262676110e-12 0.0000000000000000e+00  0.0000000000000000e+00 -8.1633999177747257e-12 0.0000000000000000e+00  0.0000000000000000e+00 -8.4307400513408817e-12 0.0000000000000000e+00  0.0000000000000000e+00 -8.1834451905232545e-12 0.0000000000000000e+00  0.0000000000000000e+00 3.4148669365998460e-12 0.0000000000000000e+00  0.0000000000000000e+00 6.6037532005748124e-12 0.0000000000000000e+00  0.0000000000000000e+00 6.7514741117225286e-12 0.0000000000000000e+00  0.0000000000000000e+00 -6.2675803896100037e-12 0.0000000000000000e+00  0.0000000000000000e+00 -5.8910895860402107e-12 0.0000000000000000e+00  0.0000000000000000e+00 5.7713087564661388e-12 0.0000000000000000e+00  0.0000000000000000e+00 8.3744229503283663e-12 0.0000000000000000e+00  0.0000000000000000e+00 -3.7420077031999098e-12 0.0000000000000000e+00  0.0000000000000000e+00 -7.2796422090279089e-12 0.0000000000000000e+00  0.0000000000000000e+00 -3.7431988077914167e-12 0.0000000000000000e+00  0.0000000000000000e+00 2.8219003553363963e-12 0.0000000000000000e+00  0.0000000000000000e+00 3.3035016500190356e-12 0.0000000000000000e+00  0.0000000000000000e+00 6.5581201281846106e-12 0.0000000000000000e+00  0.0000000000000000e+00 -9.5320808460699429e-12 0.0000000000000000e+00  0.0000000000000000e+00 -9.8595687687821038e-12 0.0000000000000000e+00  0.0000000000000000e+00 -5.7553036626084003e-12 0.0000000000000000e+00  0.0000000000000000e+00 6.8089942882269675e-12 0.0000000000000000e+00  0.0000000000000000e+00 8.9563882741084501e-12 0.0000000000000000e+00  0.0000000000000000e+00 8.1107399268396527e-12 0.0000000000000000e+00  0.0000000000000000e+00 9.8222794139826599e-12 0.0000000000000000e+00  0.0000000000000000e+00 8.8187229193111448e-12 0.0000000000000000e+00  0.0000000000000000e+00 1.0136994385949715e-11 0.0000000000000000e+00  0.0000000000000000e+00 9.0872002884169322e-12 0.0000000000000000e+00  0.0000000000000000e+00 1.0248593105088661e-11 0.0000000000000000e+00  0.0000000000000000e+00 9.2614307585384419e-12 0.0000000000000000e+00  0.0000000000000000e+00 1.0550930166024375e-11 0.0000000000000000e+00  0.0000000000000000e+00 -8.5208629751314472e-12 0.0000000000000000e+00  0.0000000000000000e+00 -9.8127745190514366e-12 0.0000000000000000e+00  0.0000000000000000e+00 9.9056387790375315e-12 0.0000000000000000e+00  0.0000000000000000e+00 8.3273593553383145e-12 0.0000000000000000e+00  0.0000000000000000e+00 8.4749306302308168e-12 0.0000000000000000e+00  0.0000000000000000e+00 5.9700795724428209e-12 0.0000000000000000e+00  0.0000000000000000e+00 5.6986992599858737e-12 0.0000000000000000e+00  0.0000000000000000e+00 5.4149290655971699e-12 0.0000000000000000e+00  0.0000000000000000e+00 7.7551383444977972e-12 0.0000000000000000e+00  0.0000000000000000e+00 2.5393272509894076e-12 0.0000000000000000e+00  0.0000000000000000e+00 4.5548797251265319e-12 0.0000000000000000e+00  0.0000000000000000e+00 1.5316168538731396e-12 0.0000000000000000e+00  0.0000000000000000e+00 -1.8123763668069290e-12 0.0000000000000000e+00  0.0000000000000000e+00 6.2156745654012117e-12 0.0000000000000000e+00  0.0000000000000000e+00 -4.3399721353875230e-12 0.0000000000000000e+00  0.0000000000000000e+00 -8.0405784794946951e-12 0.0000000000000000e+00  0.0000000000000000e+00 -2.2698383407983712e-12 0.0000000000000000e+00  0.0000000000000000e+00 -5.4397447421619361e-12 0.0000000000000000e+00  0.0000000000000000e+00 1.6268812793928743e-12 0.0000000000000000e+00  0.0000000000000000e+00 7.3626484325204747e-12 0.0000000000000000e+00  0.0000000000000000e+00 2.7475431073952261e-12 0.0000000000000000e+00  0.0000000000000000e+00 7.1716168036634842e-12 0.0000000000000000e+00  0.0000000000000000e+00 -4.7689852645375918e-12 0.0000000000000000e+00  0.0000000000000000e+00 8.5639223039319611e-13 0.0000000000000000e+00  0.0000000000000000e+00 4.4085653947778317e-12 0.0000000000000000e+00  0.0000000000000000e+00 -5.3122905654204663e-12 0.0000000000000000e+00  0.0000000000000000e+00 -7.9778749031096278e-12 0.0000000000000000e+00  0.0000000000000000e+00 8.6669558438224307e-12 0.0000000000000000e+00  0.0000000000000000e+00 -1.0481624638059245e-11 0.0000000000000000e+00  0.0000000000000000e+00 7.7207519330495142e-13 0.0000000000000000e+00  0.0000000000000000e+00 -1.2103119012264399e-12 0.0000000000000000e+00  0.0000000000000000e+00 -7.3334334500524033e-12 0.0000000000000000e+00  0.0000000000000000e+00 -9.3743642330739004e-12 0.0000000000000000e+00  0.0000000000000000e+00 -4.5399400414059204e-12 0.0000000000000000e+00  0.0000000000000000e+00 1.0044357573071546e-11 0.0000000000000000e+00  0.0000000000000000e+00 -8.8960190233047270e-12 0.0000000000000000e+00  0.0000000000000000e+00 -6.4280622806024095e-12 0.0000000000000000e+00  0.0000000000000000e+00 9.2445278471494160e-12 0.0000000000000000e+00  0.0000000000000000e+00 8.2027243256450858e-12 0.0000000000000000e+00  0.0000000000000000e+00 6.1408025687421037e-12 0.0000000000000000e+00  0.0000000000000000e+00 2.6837621499726141e-12 0.0000000000000000e+00  0.0000000000000000e+00 -6.2137831631353010e-12 0.0000000000000000e+00  0.0000000000000000e+00 7.0590903397422101e-12 0.0000000000000000e+00  0.0000000000000000e+00 -9.5462484067136478e-12 0.0000000000000000e+00  0.0000000000000000e+00 5.2580025320286597e-12 0.0000000000000000e+00  0.0000000000000000e+00 2.2783855636962213e-12 0.0000000000000000e+00  0.0000000000000000e+00 9.8743229035462492e-12 0.0000000000000000e+00  0.0000000000000000e+00 -1.6321784028274662e-12 0.0000000000000000e+00  0.0000000000000000e+00 -8.6023608651714511e-12 0.0000000000000000e+00  0.0000000000000000e+00 -2.8246955605838023e-12 0.0000000000000000e+00  0.0000000000000000e+00 -5.0571727211802273e-12 0.0000000000000000e+00  0.0000000000000000e+00 -2.6415108569502589e-12 0.0000000000000000e+00  0.0000000000000000e+00 -3.5490308030251319e-12 0.0000000000000000e+00  0.0000000000000000e+00 -4.6770906474852863e-13 0.0000000000000000e+00  0.0000000000000000e+00 4.8012707829626642e-12 0.0000000000000000e+00  0.0000000000000000e+00 5.7359886147853176e-12 0.0000000000000000e+00  0.0000000000000000e+00 -9.9340517111776539e-12 0.0000000000000000e+00  0.0000000000000000e+00 7.7250794135503171e-12 0.0000000000000000e+00  0.0000000000000000e+00 9.8910462514290181e-12 0.0000000000000000e+00  0.0000000000000000e+00 -3.5769469427979418e-12 0.0000000000000000e+00  0.0000000000000000e+00 -2.9231203038136665e-12 0.0000000000000000e+00  0.0000000000000000e+00 -1.0385552176761351e-11 0.0000000000000000e+00  0.0000000000000000e+00 6.9778857367624257e-12 0.0000000000000000e+00  0.0000000000000000e+00 3.5970101718970968e-12 0.0000000000000000e+00  0.0000000000000000e+00 8.9441300720812809e-12 0.0000000000000000e+00  0.0000000000000000e+00 8.5202704155607983e-12 0.0000000000000000e+00  0.0000000000000000e+00 -7.7280362259533548e-12 0.0000000000000000e+00  0.0000000000000000e+00 1.0417652146229958e-11 0.0000000000000000e+00  0.0000000000000000e+00 9.6665320141052393e-12 0.0000000000000000e+00  0.0000000000000000e+00 -6.3646584065429376e-12 0.0000000000000000e+00  0.0000000000000000e+00 -1.1881836918053252e-12 0.0000000000000000e+00  0.0000000000000000e+00 -2.0788845227940930e-12 0.0000000000000000e+00  0.0000000000000000e+00 1.0472933764356389e-11 0.0000000000000000e+00  0.0000000000000000e+00 -1.0492685750044697e-11 0.0000000000000000e+00  0.0000000000000000e+00 -7.5192098536262610e-12 0.0000000000000000e+00  0.0000000000000000e+00 3.6423619281274961e-12 0.0000000000000000e+00  0.0000000000000000e+00 -3.0569848977285234e-12 0.0000000000000000e+00  0.0000000000000000e+00 -7.2020348616234807e-12 0.0000000000000000e+00  0.0000000000000000e+00 -6.9911734362254697e-12 0.0000000000000000e+00  0.0000000000000000e+00 5.6190329177096944e-12 0.0000000000000000e+00  0.0000000000000000e+00 1.0923626194161929e-12 0.0000000000000000e+00  0.0000000000000000e+00 -7.9624025143204528e-12 0.0000000000000000e+00  0.0000000000000000e+00 5.1364200819418056e-12 0.0000000000000000e+00  0.0000000000000000e+00 1.0288330509023413e-11 0.0000000000000000e+00  0.0000000000000000e+00 7.6874668444396091e-12 0.0000000000000000e+00  0.0000000000000000e+00 -6.4897543159022277e-12 0.0000000000000000e+00  0.0000000000000000e+00 2.6905017669074733e-12 0.0000000000000000e+00  0.0000000000000000e+00 -6.1017953897327978e-12 0.0000000000000000e+00  0.0000000000000000e+00 3.4335175994497766e-12 0.0000000000000000e+00  0.0000000000000000e+00 -1.0069580260250495e-11 0.0000000000000000e+00  0.0000000000000000e+00 -1.0308513447126739e-11 0.0000000000000000e+00  0.0000000000000000e+00 6.1351044201435375e-12 0.0000000000000000e+00  0.0000000000000000e+00 5.2651371886772851e-12 0.0000000000000000e+00  0.0000000000000000e+00 4.8245302424731997e-12 0.0000000000000000e+00  0.0000000000000000e+00 8.0364844315520274e-13 0.0000000000000000e+00  0.0000000000000000e+00 9.7796211103461216e-12 0.0000000000000000e+00  0.0000000000000000e+00 -6.0752140053565016e-12 0.0000000000000000e+00  0.0000000000000000e+00 -1.0494325763401848e-11 0.0000000000000000e+00  0.0000000000000000e+00 3.2287553478143079e-12 0.0000000000000000e+00  0.0000000000000000e+00 2.5181387572510399e-12 0.0000000000000000e+00  0.0000000000000000e+00 8.7585811156153499e-12 0.0000000000000000e+00  0.0000000000000000e+00 -8.9582796763743609e-12 0.0000000000000000e+00  0.0000000000000000e+00 -1.5981152056904463e-15 0.0000000000000000e+00  0.0000000000000000e+00 -4.2824040752814154e-12 0.0000000000000000e+00  0.0000000000000000e+00 1.7653845972193796e-12 0.0000000000000000e+00  0.0000000000000000e+00 4.3692110596564284e-12 0.0000000000000000e+00  0.0000000000000000e+00 -3.2311674842483647e-12 0.0000000000000000e+00  0.0000000000000000e+00 4.6052053904802595e-13 0.0000000000000000e+00  0.0000000000000000e+00 9.1027325317081934e-13 0.0000000000000000e+00  0.0000000000000000e+00 4.8451201911907094e-12 0.0000000000000000e+00  0.0000000000000000e+00 -2.5204012574298824e-12 0.0000000000000000e+00  0.0000000000000000e+00 -4.7218019605433679e-13 0.0000000000000000e+00  0.0000000000000000e+00 3.7173835610418180e-12 0.0000000000000000e+00  0.0000000000000000e+00 -4.1263574028935661e-12 0.0000000000000000e+00  0.0000000000000000e+00 -5.9475862505589830e-12 0.0000000000000000e+00  0.0000000000000000e+00 1.6090985068231877e-12 0.0000000000000000e+00  0.0000000000000000e+00 -4.6214080041948811e-12 0.0000000000000000e+00  0.0000000000000000e+00 -5.7114961525318143e-13 0.0000000000000000e+00  0.0000000000000000e+00 4.7807945577991169e-12 0.0000000000000000e+00  0.0000000000000000e+00 -2.4075455937471358e-12 0.0000000000000000e+00  0.0000000000000000e+00 3.1689966129318605e-13 0.0000000000000000e+00  0.0000000000000000e+00 2.7969290570662067e-12 0.0000000000000000e+00  0.0000000000000000e+00 6.3942444869239412e-12 0.0000000000000000e+00  0.0000000000000000e+00 4.1088978446351428e-12 0.0000000000000000e+00  0.0000000000000000e+00 5.7599663283208826e-12 0.0000000000000000e+00  0.0000000000000000e+00 2.6675655217082008e-12 0.0000000000000000e+00  0.0000000000000000e+00 -2.3213371543929804e-12 0.0000000000000000e+00  0.0000000000000000e+00 4.2044076736134293e-12 0.0000000000000000e+00  0.0000000000000000e+00 -2.5595820144952370e-12 0.0000000000000000e+00  0.0000000000000000e+00 4.3198191245352389e-13 0.0000000000000000e+00  0.0000000000000000e+00 -5.6476852678581600e-12 0.0000000000000000e+00  0.0000000000000000e+00 2.1942899882656941e-12 0.0000000000000000e+00  0.0000000000000000e+00 -2.0366332297717378e-12 0.0000000000000000e+00  0.0000000000000000e+00 -6.6728731795834771e-12 0.0000000000000000e+00  0.0000000000000000e+00 -7.0205021422475044e-12 0.0000000000000000e+00  0.0000000000000000e+00 -6.2222585606306479e-12 0.0000000000000000e+00  0.0000000000000000e+00 5.7915096509200914e-12 0.0000000000000000e+00  0.0000000000000000e+00 -6.0042265658827610e-12 0.0000000000000000e+00  0.0000000000000000e+00 7.0536854782038634e-12 0.0000000000000000e+00  0.0000000000000000e+00 -2.7653378508653299e-12 0.0000000000000000e+00  0.0000000000000000e+00 3.8979586083844215e-12 0.0000000000000000e+00  0.0000000000000000e+00 3.1061434002915782e-12 0.0000000000000000e+00  0.0000000000000000e+00 1.7246955067014632e-12 0.0000000000000000e+00  </DataArray> 
</PointData> 
</Piece>
</UnstructuredGrid>
</VTKFile>