<?xml version="1.0"?>
<VTKFile type="UnstructuredGrid"  version="0.1"  >
<UnstructuredGrid>
<Piece  NumberOfPoints="201" NumberOfCells="657">
<Points>
<DataArray  type="Float64"  NumberOfComponents="3"  format="ascii">-15.59967243252537 0.8411402432330883 62.68972126523771  -8.337677972089253 -1.624640384451782 -63.428629091475  2494.058959079217 -28.66437166117819 -81.63999759120931  4165.446968925115 -36.82123383178882 -119.3684843174311  5010.619845149725 -40.00823688733735 -155.5310530816805  5415.965731509101 -39.65347640094687 -107.5734704735484  5539.726892832141 -40.34921540645362 2.01961071424205  5417.056859278874 -41.32426002874676 108.8542385758867  5010.738267156808 -41.54574818559266 153.9808575307327  4168.10065247692 -43.05978059293334 117.7174992928523  2496.938832277901 -20.75765284420498 79.66852676405531  2902.046226480286 -1392.740049886667 -104.5437530687978  2974.317665755368 1062.146606905801 95.10153793119403  5340.082419727894 -1007.559740888957 -54.89684900663178  4417.35217150471 -1211.165035029686 144.7576367660149  5065.820175214899 983.110675371813 136.927848034201  5064.791296513357 982.8172462931884 -136.0618974130231  3224.331817614893 1191.050548826311 -109.9760030452494  1222.916791165973 -1338.713082912341 81.63799262003175  4420.426490188575 -1128.388451255114 -140.7647104141301  3131.361977447904 -2203.632887476645 -133.580742768084  4231.817484240881 -1996.516945694028 -132.7541882838786  2903.244278934078 -2819.791666289121 -125.3726878765592  3871.545607636969 -2545.958645733169 -76.27227576528021  2446.342618057406 -3200.912524802456 -60.75573046213535  3422.664050237685 -2859.6946745502 15.84511407747284  1812.59111848767 -3391.579694612115 28.5732206102678  2704.122336671961 -3029.382109721763 101.0097969677742  980.5818320980088 -3394.797233542269 99.17960689633315  1875.578594360737 -2956.096027106138 132.214462403311  -68.64173062883999 -3159.670230040814 128.3506709509049  4075.310825478678 -2374.21165414343 87.62833185973905  4437.296844876014 1058.743448375873 144.3506505539187  4170.172604334717 1955.194040750723 137.0619578288026  4726.897934155696 1782.517832310253 77.12017309878128  788.6603530825575 -2604.923344140482 110.5359726129905  2779.299825962051 -2234.227883028662 124.5724108211679  3182.675345109401 2044.182483656677 131.5777540373298  2783.514141728477 2758.912440974944 126.3453450139829  5349.431083872802 -984.4589272323003 53.98063830717517  4706.757660900694 -1970.339710671038 4.394080458637986  5098.761186480828 -1051.931555996639 -128.1754323125731  1198.367676445798 1324.37013083885 -77.55687707284589  4415.889104951845 1041.431550759572 -144.9796023694093  4147.845433924271 1952.049465798283 -139.7328640391371  1232.225742736574 -3326.966471134664 -107.7986929193871  -863.0898452622365 -3409.94158031601 94.58131391659661  1466.126461494869 -2395.57342639914 -108.1195952789415  4698.035094090516 1808.932612853912 -82.00869119435578  3572.165051979945 2630.372149485013 -89.74115693233747  2733.591534137958 2719.029932787731 -131.2130522505405  2022.807273983195 3212.073486633018 -87.43281030431301  940.553547908801 3181.149487921876 -123.5978462528415  232.4312518357844 3474.17794809006 -78.79427204486529  -997.6396789003277 3260.142794784541 -119.3165309580212  -1535.737982910673 3413.220587662322 -63.702579148744  -2726.500188298695 3012.546509398417 -110.0430908543881  -322.4771035582191 3556.189582109149 6.3375570010721  -2000.801337700553 -2974.768185372666 126.3891232480615  -2553.535785685505 -3098.862575267203 81.33822377724269  -3072.166353287511 3038.776908098223 -33.10503354517279  -4067.340823907188 2440.097671280619 -85.63280975632239  -4242.504469078589 2399.950464488093 7.074443328727011  -4982.972547325546 1609.406772160752 -58.27533037838673  -5035.136630191215 1530.000256621186 52.78584120261281  -4673.983833385811 1597.974826488275 -135.0838934012304  -4201.748562024937 2275.520142836901 104.4305947054648  -5312.355090700408 707.6290042001854 -104.6298636902482  -4889.03137807051 1317.465028038414 132.4749822830485  -4931.522092755494 495.6624344865579 -152.6531658321591  -5215.246494500096 -460.4103945069264 -136.9316708210368  -3894.811238965196 2046.76526436155 140.9741000023903  -1090.924619708593 -1927.492201190511 86.85703508125818  -3591.814662886539 -2472.041375947853 123.8858276224347  -4631.099415077555 -687.2713961369509 -147.0923358982685  -4627.378745830608 -1553.228647232736 -136.1440626081808  -5387.080203150728 463.1219499157279 93.23937069502271  -2206.237901038183 2718.745792935455 -133.3165118108469  -4463.740602691242 933.5752581248894 142.119634465495  1434.607065925647 2758.306330066569 127.0203891077732  -5165.750701956964 -1211.438107598545 -63.31168697771611  -4096.394516270388 332.037602036275 -120.263954826225  -3197.557976047207 1729.835913980684 118.0548382533009  -3681.781347649251 -1807.494393398505 -137.924516280739  -3516.780980986582 -2476.919853137983 -127.3178420796819  -2971.341578374451 2841.268943060732 123.475429782636  -1442.119378908009 -3443.105158185724 20.47783801425854  -3561.51120963281 324.6820439743612 98.77405278443844  -4624.058293772421 -357.2831365941984 143.6219876417971  -2219.516173341709 -2662.268773341783 -132.3827921632666  -2029.583649136611 -3136.666218642229 -112.9976073595038  -2172.947872428084 -1887.669140484012 -105.8310594677104  2881.012865123661 3043.82960653014 -8.801010199657004  -3865.977469390309 -2543.825036852243 58.5722479593204  -4712.038568894366 -1747.845105705267 103.1513591614157  1074.537914914846 3251.806172920296 116.6441420002982  -449.4049045674844 3096.058980857865 125.2751614236991  -173.9971575216589 2565.466085044508 112.5991577913756  -2133.714023908603 1224.132413648939 88.05077788877021  -3005.135531451549 -2217.067718530372 133.6984922959392  1576.175630118257 2710.355837062813 -124.866719287412  -3201.023024534539 -2875.594315726569 -69.70214010423159  -557.2006236025529 2294.275018134328 -100.6297350247432  -1339.184725676742 1095.99662613129 -78.86929934239009  -693.7042015604749 3428.740437703696 92.61287709004846  -1738.673999525995 -772.4929639924275 73.52824201586219  -447.8622455398149 -3191.180391812861 -126.0429805296291  -3332.578702853021 -1097.405303589379 110.1646624971357  -4386.639329722014 -1546.459908963392 141.3386635375208  -5126.230801387277 -696.8332597206702 141.0905417839697  -5318.303383159227 -880.1266191635327 53.27179181641463  -5488.502520248139 -80.21655710187929 -35.27031088175764  -2754.681976817066 1920.171703278553 -116.9459165923751  -3765.345676538994 1963.25170603861 -140.1642131974841  -504.8437266816854 -3449.547101745148 -92.22441450817324  -247.4128606722203 2985.870375028294 -127.2453625998318  2303.168463576574 3161.205746135009 77.76401603390779  5086.842429363053 -1008.612276966155 130.9093451791086  384.3323214458026 -1406.31911619843 -75.01624542174629  902.3122145578269 -3511.241613124119 -47.61316613347407  -2058.748823863633 2661.008001640715 127.2625548466383  5339.692574669608 879.1350873166156 -57.31558451093004  3662.294219148125 2598.196112910889 82.56915045396464  4221.962450198663 2318.684976593443 -4.517713032641579  -4350.475348882907 -2149.038400403184 -81.9994937469084  -1920.774631428706 3383.783679212084 23.01172333708772  -3183.364721681463 2965.085165726523 59.38213246373584  -381.6954831974554 -2642.281678995058 -111.2694736250523  -1900.06239322481 -550.1975091196514 -76.01512881476668  -3596.707405796384 -783.8165160995418 -110.5234547281463  1302.710146227429 3451.237475068156 -15.30988463269672  147.5234136408774 -3559.605745689879 34.72841224135929  3391.014130356479 -2466.282696434176 135.2826849555365  5339.664588812654 890.9723472158007 52.51015930093688  3199.518048510069 -1232.075111201309 111.6724950813169  -4733.640347729965 -1900.286826458745 9.436402980798924  -1226.516160871888 -2742.756050321843 119.481183766552  3274.481169952903 1983.789730576408 -132.3093394719851  -5112.295224435387 345.7978794982622 149.1607329888059  1445.679992920385 -2979.220998303194 -128.2576239676216  1788.985735435796 2135.206487223978 104.7341831133881  796.5412351049067 3469.914416426523 62.23095243208861  -3747.635209964746 2423.222453733231 -129.2635685245508  4769.085445193651 -1783.723382532187 -85.87570687002504  -130.4959542060312 1295.622385138557 71.09143407886211  4497.706487216498 -1804.722693073661 128.103458877088  -5363.476672847626 914.1713370714471 -9.518853388590339  -2918.279802921082 -3049.711886974099 1.395800101310303  -1812.590748250716 -3348.123571995439 -52.04383413407858  4998.360638195207 1552.031995809753 -3.144659317434635  -1652.917977856127 2216.062069718906 106.5309238415534  2049.051827745163 1989.683393796575 -107.1715073752486  -2676.579444531327 386.7043069976396 -80.98132413221251  -2168.453430220864 3227.419661052238 92.48609982693722  4853.033775633547 -1668.232074492295 90.18422434681098  -395.5543084050363 -3553.572573941105 -30.82629449172673  -4273.290654558235 1134.137930462474 -133.0055159883358  -3234.881168357085 1051.451173489392 -104.8755470841421  -1757.444375879046 3101.877550258506 125.5703061088001  -3951.937204101048 -2523.708499185251 -18.09712937735325  -6.47410139634815 -0.2985783124496579 0.07875892269876932  -2386.402450299473 -1768.399584801143 1.813472483717198  3591.522481896403 669.675480173339 -1.668234208713182  -1490.959973397777 1927.288026169048 23.33519757969313  2726.951000638277 -1375.101619272534 23.84697231997172  -1947.554266890799 237.0884842825106 -32.53231138561251  -3679.655288040972 385.7596255452424 -0.1375413148052341  720.80601640161 2147.506582082771 -20.93279302994229  2616.337781706917 -1105.277001163255 -28.2014885093111  -2137.800102914844 -204.7095922904592 34.35059265985481  1946.844989347158 1613.125362058789 34.31853187027265  -731.5205709234622 -1863.67457518038 -37.59732330781739  610.0649807759809 -2527.913589812885 0.2939240284434198  1638.319840385866 746.4125097934027 -37.1
[...]
<PointData  Vectors="Centrifugal"> 
<DataArray  type="Float64"  Name="Centrifugal"  NumberOfComponents="3" format="ascii">-3.7716158996728973e-07 2.0336695715575261e-08 0.0000000000000000e+00  -2.0158448160946184e-07 -3.9279795981284906e-08 0.0000000000000000e+00  6.0300191978206751e-05 -6.9303378246593420e-07 0.0000000000000000e+00  1.0071023019999367e-04 -8.9024658412686866e-07 0.0000000000000000e+00  1.2114442503151117e-04 -9.6730045463989993e-07 0.0000000000000000e+00  1.3094468844391711e-04 -9.5872322138815654e-07 0.0000000000000000e+00  1.3393692796578481e-04 -9.7554447392753463e-07 0.0000000000000000e+00  1.3097106922122436e-04 -9.9911864714328502e-07 0.0000000000000000e+00  1.2114728818345689e-04 -1.0044736842927171e-06 0.0000000000000000e+00  1.0077438972077825e-04 -1.0410792522932055e-06 0.0000000000000000e+00  6.0369820206569707e-05 -5.0186882991115357e-07 0.0000000000000000e+00  7.0164317467056984e-05 -3.3673018064861084e-05 0.0000000000000000e+00  7.1911662551648470e-05 2.5680084294826122e-05 0.0000000000000000e+00  1.2911001719378824e-04 -2.4360308558041020e-05 0.0000000000000000e+00  1.0680067646653492e-04 -2.9282982210069610e-05 0.0000000000000000e+00  1.2247903281537026e-04 2.3769190477610446e-05 0.0000000000000000e+00  1.2245415706694433e-04 2.3762096086473990e-05 0.0000000000000000e+00  7.7956387877614126e-05 2.8796663562633043e-05 0.0000000000000000e+00  2.9567110678051322e-05 -3.2366779305471576e-05 0.0000000000000000e+00  1.0687500590696960e-04 -2.7281648651078917e-05 0.0000000000000000e+00  7.5708606529124411e-05 -5.3278406142166631e-05 0.0000000000000000e+00  1.0231490550274207e-04 -4.8270853692063435e-05 0.0000000000000000e+00  7.0193283419405604e-05 -6.8175605150311525e-05 0.0000000000000000e+00  9.3604420434022944e-05 -6.1554998348140296e-05 0.0000000000000000e+00  5.9146528583988143e-05 -7.7390167160400460e-05 0.0000000000000000e+00  8.2751571912492104e-05 -6.9140361436401525e-05 0.0000000000000000e+00  4.3823980994880378e-05 -8.2000028888652390e-05 0.0000000000000000e+00  6.5379006153918709e-05 -7.3242984944914082e-05 0.0000000000000000e+00  2.3708049286726366e-05 -8.2077821041271517e-05 0.0000000000000000e+00  4.5346862750960025e-05 -7.1471108287802371e-05 0.0000000000000000e+00  -1.6595876851939427e-06 -7.6393030231180825e-05 0.0000000000000000e+00  9.8530960646557548e-05 -5.7402579847029702e-05 0.0000000000000000e+00  1.0728288945867558e-04 2.5597804318268329e-05 0.0000000000000000e+00  1.0082448440452235e-04 4.7271767807542618e-05 0.0000000000000000e+00  1.1428472925764713e-04 4.3096883135660916e-05 0.0000000000000000e+00  1.9067861456665753e-05 -6.2980619270594640e-05 0.0000000000000000e+00  6.7196612357705313e-05 -5.4018117646837737e-05 0.0000000000000000e+00  7.6949237152459154e-05 4.9423288793659042e-05 0.0000000000000000e+00  6.7298504114853762e-05 6.6703695691007895e-05 0.0000000000000000e+00  1.2933604482662564e-04 -2.3801787881022439e-05 0.0000000000000000e+00  1.1379778714292730e-04 -4.7637952736936170e-05 0.0000000000000000e+00  1.2327546519162207e-04 -2.5433109567686150e-05 0.0000000000000000e+00  2.8973573654745385e-05 3.2020002113049138e-05 0.0000000000000000e+00  1.0676530312714654e-04 2.5179245347972232e-05 0.0000000000000000e+00  1.0028466851236840e-04 4.7195739743878964e-05 0.0000000000000000e+00  2.9792178158825856e-05 -8.0437840566745537e-05 0.0000000000000000e+00  -2.0867382935874103e-05 -8.2443973980245261e-05 0.0000000000000000e+00  3.5447320429469235e-05 -5.7919054793752515e-05 0.0000000000000000e+00  1.1358689699885843e-04 4.3735527355376165e-05 0.0000000000000000e+00  8.6366137267162188e-05 6.3595908593368894e-05 0.0000000000000000e+00  6.6091498638578942e-05 6.5739435046123572e-05 0.0000000000000000e+00  4.8906488963329071e-05 7.7660011679750617e-05 0.0000000000000000e+00  2.2740264137790500e-05 7.6912345690449558e-05 0.0000000000000000e+00  5.6196141861085337e-06 8.3997050861069536e-05 0.0000000000000000e+00  -2.4120465935166164e-05 7.8822208948281486e-05 0.0000000000000000e+00  -3.7130355263103581e-05 8.2523252287504821e-05 0.0000000000000000e+00  -6.5920047392835525e-05 7.2835941667981672e-05 0.0000000000000000e+00  -7.7967007084370621e-06 8.5979889822352003e-05 0.0000000000000000e+00  -4.8374439719796614e-05 -7.1922555004416835e-05 0.0000000000000000e+00  -6.1738194896925947e-05 -7.4922851170960278e-05 0.0000000000000000e+00  -7.4277402391729211e-05 7.3470127989642159e-05 0.0000000000000000e+00  -9.8338265673137453e-05 5.8995541179234415e-05 0.0000000000000000e+00  -1.0257329042786011e-04 5.8024880775170861e-05 0.0000000000000000e+00  -1.2047598158497296e-04 3.8911484822375071e-05 0.0000000000000000e+00  -1.2173718040295449e-04 3.6991631198255398e-05 0.0000000000000000e+00  -1.1300539685727902e-04 3.8635088582332189e-05 0.0000000000000000e+00  -1.0158791315334362e-04 5.5016462607604001e-05 0.0000000000000000e+00  -1.2843963879021673e-04 1.7108723371307901e-05 0.0000000000000000e+00  -1.1820471589571782e-04 3.1853053764462535e-05 0.0000000000000000e+00  -1.1923203653842704e-04 1.1983894705905185e-05 0.0000000000000000e+00  -1.2609179253249424e-04 -1.1131587357413277e-05 0.0000000000000000e+00  -9.4166925995681303e-05 4.9485734058545378e-05 0.0000000000000000e+00  -2.6375865639706743e-05 -4.6602005676399257e-05 0.0000000000000000e+00  -8.6841216376920874e-05 -5.9767861142608853e-05 0.0000000000000000e+00  -1.1196855743235376e-04 -1.6616526637160416e-05 0.0000000000000000e+00  -1.1187860083006012e-04 -3.7553236371269608e-05 0.0000000000000000e+00  -1.3024630763817835e-04 1.1197146076911521e-05 0.0000000000000000e+00  -5.3341388942671259e-05 6.5732565245560753e-05 0.0000000000000000e+00  -1.0792223427732089e-04 2.2571546308519626e-05 0.0000000000000000e+00  3.4685259213176732e-05 6.6689041424715720e-05 0.0000000000000000e+00  -1.2489510639097419e-04 -2.9289584431026045e-05 0.0000000000000000e+00  -9.9040712269598310e-05 8.0278499727860237e-06 0.0000000000000000e+00  -7.7309062448258114e-05 4.1823164333830394e-05 0.0000000000000000e+00  -8.9016388837493877e-05 -4.3700754757498225e-05 0.0000000000000000e+00  -8.5027087081008404e-05 -5.9885810684280604e-05 0.0000000000000000e+00  -7.1839708101750739e-05 6.8694872711241587e-05 0.0000000000000000e+00  -3.4866888405777703e-05 -8.3245787467832973e-05 0.0000000000000000e+00  -8.6108553645692778e-05 7.8500107273962283e-06 0.0000000000000000e+00  -1.1179832049192539e-04 -8.6382247094751612e-06 0.0000000000000000e+00  -5.3662424805166238e-05 -6.4367090258909561e-05 0.0000000000000000e+00  -4.9070324995023416e-05 -7.5836849993919620e-05 0.0000000000000000e+00  -5.2536518188176274e-05 -4.5639182324922380e-05 0.0000000000000000e+00  6.9655782685577763e-05 7.3592289771080485e-05 0.0000000000000000e+00  -9.3469796589621423e-05 -6.1503412949704417e-05 0.0000000000000000e+00  -1.1392546646850144e-04 -4.2258582155214024e-05 0.0000000000000000e+00  2.5979675549109182e-05 7.8620650000753853e-05 0.0000000000000000e+00  -1.0865501764790606e-05 7.4855067175519352e-05 0.0000000000000000e+00  -4.2068219614551299e-06 6.2026640099508803e-05 0.0000000000000000e+00  -5.1587940533603974e-05 2.9596501430354499e-05 0.0000000000000000e+00  -7.2656762506512863e-05 -5.3603227208960300e-05 0.0000000000000000e+00  3.8108037799792466e-05 6.5529716813302429e-05 0.0000000000000000e+00  -7.7392838771283529e-05 -6.9524775530474740e-05 0.0000000000000000e+00  -1.3471736284059203e-05 5.5469909217935777e-05 0.0000000000000000e+00  -3.2378182463819133e-05 2.6498494240722824e-05 0.0000000000000000e+00  -1.6772056000483945e-05 8.2898483969001625e-05 0.0000000000000000e+00  -4.2036847435892485e-05 -1.8676973878658729e-05 0.0000000000000000e+00  -1.0828204075741705e-05 -7.7154868197040316e-05 0.0000000000000000e+00  -8.0573530482499361e-05 -2.6532552585995204e-05 0.0000000000000000e+00  -1.0605811573077087e-04 -3.7389584980589330e-05 0.0000000000000000e+00  -1.2393961270361101e-04 -1.6847708906396109e-05 0.0000000000000000e+00  -1.2858345382550421e-04 -2.1279290093560827e-05 0.0000000000000000e+00  -1.3269844902384382e-04 -1.9394384304611276e-06 0.0000000000000000e+00  -6.6601413505597610e-05 4.6425014098930787e-05 0.0000000000000000e+00  -9.1036768129746645e-05 4.7466582273330310e-05 0.0000000000000000e+00  -1.2205875697957847e-05 -8.3401537768735870e-05 0.0000000000000000e+00  -5.9818325232857419e-06 7.2190978557587471e-05 0.0000000000000000e+00  5.5684930785715068e-05 7.6430155221722057e-05 0.0000000000000000e+00  1.2298729905195388e-04 -2.4385756283439846e-05 0.0000000000000000e+00  9.2922072600752608e-06 -3.4001326384319035e-05 0.0000000000000000e+00  2.1815683051135794e-05 -8.4893158833510812e-05 0.0000000000000000e+00  -4.9775466959977843e-05 6.4336607909910618e-05 0.0000000000000000e+00  1.2910059170215293e-04 2.1255317299933001e-05 0.0000000000000000e+00  8.8545238151402638e-05 6.2817971417724220e-05 0.0000000000000000e+00  1.0207663509516627e-04 5.6060081786193020e-05 0.0000000000000000e+00  -1.0518375990235069e-04 -5.1958446147036042e-05 0.0000000000000000e+00  -4.6439591413982058e-05 8.1811540471578062e-05 0.0000000000000000e+00  -7.6965904577056292e-05 7.1688443480522903e-05 0.0000000000000000e+00  -9.2284550171654751e-06 -6.3883851632249948e-05 0.0000000000000000e+00  -4.5938820598020978e-05 -1.3302418254817366e-05 0.0000000000000000e+00  -8.6959510828497387e-05 -1.8950749429733230e-05 0.0000000000000000e+00  3.1496317127351727e-05 8.3442406824987033e-05 0.0000000000000000e+00  3.5667521537299712e-06 -8.6062484228950316e-05 0.0000000000000000e+00  8.1986354940381568e-05 -5.9628630480497982e-05 0.0000000000000000e+00  1.2909991507318197e-04 2.1541513037936098e-05 0.0000000000000000e+00  7.7356452164275717e-05 -2.9788536259960052e-05 0.0000000000000000e+00  -1.1444774418215193e-04 -4.5944246839867908e-05 0.0000000000000000e+00  -2.9654134556728015e-05 -6.6313074028071474e-05 0.0000000000000000e+00  7.9168875482430487e-05 4.7963141032686663e-05 0.0000000000000000e+00  -1.2360268483650229e-04 8.3605395307496139e-06 0.0000000000000000e+00  3.4952975267407421e-05 -7.2030213034543456e-05 0.0000000000000000e+00  4.3253261074821817e-05 5.1624024614178716e-05 0.0000000000000000e+00  1.9258401739274301e-05 8.3893969184960766e-05 0.0000000000000000e+00  -9.0608572745446160e-05 5.8587540055573280e-05 0.0000000000000000e+00  1.1530471918427300e-04 -4.3126030365543976e-05 0.0000000000000000e+00  -3.1550701968601687e-06 3.1324952552028120e-05 0.0000000000000000e+00  1.0874344556028833e-04 -4.3633741882327097e-05 0.0000000000000000e+00  -1.2967563251301359e-04 2.2102407373213738e-05 0.0000000000000000e+00  -7.0556805291897354e-05 -7.3734508798721737e-05 0.0000000000000000e+00  -4.3823972043464373e-05 -8.0949367064129404e-05 0.0000000000000000e+00  1.2084802765479055e-04 3.7524304292388977e-05 0.0000000000000000e+00  -3.9963478419833138e-05 5.3578913101960844e-05 0.0000000000000000e+00  4.9541017519467653e-05 4.8105635267771846e-05 0.0000000000000000e+00  -6.4713086979205863e-05 9.3495560182611298e-06 0.0000000000000000e+00  -5.2427853664852381e-05 7.8031044313218024e-05 0.0000000000000000e+00  1.1733438268655193e-04 -4.0333735491652568e-05 0.0000000000000000e+00  -9.5635272164681988e-06 -8.5916617021856428e-05 0.0000000000000000e+00  -1.0331762443325383e-04 2.7420656872482953e-05 0.0000000000000000e+00  -7.8211445149890772e-05 2.5421495103920409e-05 0.0000000000000000e+00  -4.2490668823503235e-05 7.4995745827328902e-05 0.0000000000000000e+00  -9.5548090884383001e-05 -6.1017044702939249e-05 0.0000000000000000e+00  -1.5652779805584093e-07 -7.2188869054695394e-09 0.0000000000000000e+00  -5.7697323219435008e-05 -4.2755538745186185e-05 0.0000000000000000e+00  8.6834152161484763e-05 1.6191100803991681e-05 0.0000000000000000e+00  -3.6047733474953783e-05 4.6597069228146410e-05 0.0000000000000000e+00  6.5930946922906447e-05 -3.3246564332340346e-05 0.0000000000000000e+00  -4.7087056925409710e-05 5.7322145757675245e-06 0.0000000000000000e+00  -8.8964985961844379e-05 9.3267159515776900e-06 0.0000000000000000e+00  1.7427311014375672e-05 5.1921410559541137e-05 0.0000000000000000e+00  6.3256592207831526e-05 -2.6722870811300658e-05 0.0000000000000000e+00  -5.1686731842292774e-05 -4.9493728566274644e-06 0.0000000000000000e+00  4.7069908344422024e-05 3.9001391151142239e-05 0.0000000000000000e+00  -1.7686362506433108e-05 -4.5059052938255095e-05 0.0000000000000000e+00  1.4749866006998592e-05 -6.1118713418993172e-05 0.0000000000000000e+00  3.9610531474141953e-05 1.8046412845065395e-05 0.0000000000000000e+00  -1.4719232536717483e-05 -4.9875082245758475e-05 0.0000000000000000e+00  3.5729740015232892e-05 -7.0349758589491367e-06 0.0000000000000000e+00  -5.9873194882412048e-05 4.7627603381904116e-05 0.0000000000000000e+00  -8.7642978470214451e-05 -2.2055220749559757e-05 0.0000000000000000e+00  9.0752276619975516e-05 1.9251321999852789e-06 0.0000000000000000e+00  -1.3934864046595997e-05 3.2470832184991089e-05 0.0000000000000000e+00  1.7294513415457820e-05 6.3377858619171435e-05 0.0000000000000000e+00  7.4915354986437120e-05 3.7974957470149267e-05 0.0000000000000000e+00  7.0804760405069066e-05 5.1083310918694022e-05 0.0000000000000000e+00  -8.6096380273462374e-05 2.6031350622386544e-05 0.0000000000000000e+00  1.0040268287550844e-04 -2.0444408355954462e-05 0.0000000000000000e+00  -2.3015978501922212e-05 4.5909637164797890e-05 0.0000000000000000e+00  -9.7873916108448774e-05 -2.1499106872291241e-05 0.0000000000000000e+00  9.8687283347467260e-05 2.9629651998083146e-06 0.0000000000000000e+00  6.9768469415542027e-05 -5.1699414845943304e-05 0.0000000000000000e+00  -9.3399470516414775e-05 2.0858848451237218e-05 0.0000000000000000e+00  2.5193624833447482e-05 -2.4132817346697413e-05 0.0000000000000000e+00  -3.3015471866410327e-05 -6.4014544274619597e-05 0.0000000000000000e+00  -3.1411570732756250e-05 -6.6392942243640029e-05 0.0000000000000000e+00  3.8369261451948062e-05 -6.1050966436169746e-05 0.0000000000000000e+00  -7.9685463032681852e-05 5.0829546308238323e-05 0.0000000000000000e+00  3.3058105986043951e-05 -6.0132457141427617e-05 0.0000000000000000e+00  -2.2970743712780666e-05 6.7716392399240664e-05 0.0000000000000000e+00  -6.1360960640158941e-05 -2.8580513624557190e-05 0.0000000000000000e+00  9.3736317073431785e-05 3.2508256478998366e-05 0.0000000000000000e+00  1.3617233385659750e-05 3.5703711991098281e-05 0.0000000000000000e+00  4.2268266167519817e-05 1.9231323664755661e-05 0.0000000000000000e+00  </DataArray> 
</PointData> 
</Piece>
</UnstructuredGrid>
</VTKFile>