<?xml version="1.0"?>
<VTKFile type="UnstructuredGrid"  version="0.1"  >
<UnstructuredGrid>
<Piece  NumberOfPoints="201" NumberOfCells="657">
<Points>
<DataArray  type="Float64"  NumberOfComponents="3"  format="ascii">-4.458015908264142 0.9158674314602986 754.4843564681249  -2.620325862181404 -0.7872551147177954 -755.9659707122288  2678.807576802902 0.9055917047222698 -741.5662975790668  4917.114678168003 0.1980251763475057 -677.6988947637872  6499.198995457923 -1.277876069723602 -537.8491570928193  7424.849790903479 -0.9114394343984272 -297.0547030991111  7730.028496873978 -0.2486596978080194 1.002348061457909  7425.544222239118 -0.4755809257514738 298.3679511569751  6499.090775767038 -0.9402332961749442 538.4915606450306  4916.972186496417 0.8591637608751574 678.9488895458823  2679.15018543166 0.6821299722043086 741.9767889477885  3325.97056776547 -1402.874806418292 -695.5583153964693  3324.712372065649 1088.597875568561 709.3420135965777  7375.401578761452 -1357.712923975974 -142.6820340275809  5578.61051530424 -1415.510949724432 583.4600871758992  6819.745111699 1352.602237503831 394.4907377359102  6797.587530400639 1353.234752724415 -399.1506749211568  3700.5071024325 1262.335131974059 -693.0257050302712  1308.611505784599 -1230.460131321821 727.2060951338809  5553.669318808322 -1303.986590093243 -592.5529513413134  3891.533370508172 -2491.508322804391 -582.2367806296028  5594.366092360055 -2520.202187696846 -429.2175665967226  3832.797531490285 -3508.17062616898 -392.2818249314399  5287.541911610243 -3374.868420567953 -202.980963888371  3321.129171927423 -4163.106509655697 -163.9162850864876  4699.066680235504 -3809.081554950151 43.8608135892874  2473.818997289353 -4411.844925679314 74.11128712827447  3631.583872630307 -3874.402813420659 285.7105339602941  1313.314421771188 -4252.571206318758 291.0639180938544  2397.448656744689 -3479.820822198463 479.8423481118379  -92.80100732729963 -3701.961211869602 471.8160922951288  5541.134821768275 -3133.800613441178 254.733192751437  5557.893594549711 1305.081268048953 594.3012060314504  5490.150631142308 2531.913823634704 443.8136369479  6489.739238213659 2483.661583950878 211.4015656284572  928.8056496622924 -2741.466691578193 619.0526264373641  3371.934594905101 -2447.940275702682 607.0532556056418  3906.087364376258 2349.605522980441 599.2285788645294  3643.058971037152 3441.763809605825 424.5530870739261  7390.834961205494 -1324.819739242529 143.7373044707825  6501.752975982386 -2684.10115490411 17.01858226208322  6839.125597950633 -1355.123942713393 -388.4588269339509  1304.952694098894 1232.103148726572 -726.6572916644186  5510.423450962097 1268.818771337124 -599.4122570902373  5451.8008363455 2517.24714163357 -450.7885707103983  1637.376251919177 -4129.758020580817 -327.6018260227274  -1146.723246931437 -4300.719342129752 274.9800729312601  1705.58591672268 -2495.315299622601 -636.5605695987899  6448.624080914822 2510.1386291309 -216.6611163622892  4840.116234462059 3520.593017248179 -246.8607856065002  3535.987056263046 3348.401854157733 -453.593718385928  2726.078783943994 4150.078970245488 -252.1555815052263  1234.149829566274 3844.136173969084 -426.7163665143424  347.9756836943142 4439.170776943563 -223.9248828600685  -1261.966541971113 3958.091760255933 -394.724932245897  -2030.701592726438 4392.976511641084 -171.7855374287205  -3609.867403791229 3803.819458274768 -318.1224019213837  -393.7347916983599 4622.071355865469 15.19482425451686  -2569.725675620115 -3604.795375557566 446.3443140109908  -3444.917241901916 -4040.731168962628 228.7695241775268  -4170.625057103018 3991.414870239156 -88.04417187649099  -5531.620069394879 3187.670183048035 -232.3653826979123  -5844.375826229176 3203.250945708707 20.26989096498104  -6881.050799247465 2157.97908535849 -153.4232286449771  -6970.46998363745 2052.498582478973 141.1869677829068  -6236.881462201768 2011.023386276573 -419.5999091473934  -5689.242908477901 2949.689418359841 291.7450460790088  -7320.065459958659 901.6486050656659 -282.0716927684459  -6561.739038720591 1667.916207303065 407.5379617285058  -6421.720969537831 564.7693100374905 -538.5860738239029  -7065.050510204887 -649.848105042456 -399.1114167227831  -4990.723622323192 2431.56638743231 516.9899986725075  -1190.048033285821 -1894.826123131377 689.6747974351649  -4769.004404885417 -3172.472884509522 385.3976435747969  -5848.208877372122 -855.395915536515 -595.7886336106358  -6148.843754422662 -2027.426809205479 -433.5728550407915  -7470.504116456974 574.0643865782575 244.2214618789319  -2735.163939950147 3104.180579340455 -539.7108844735093  -5593.508891860096 1047.53730202371 609.0232798830787  1775.207153703783 3106.312660926725 561.3494192294766  -7167.331264718528 -1703.099754961004 -163.873815678605  -4865.054216048316 335.2182087455053 -680.3755487675987  -3794.964091712795 1806.865561652446 653.730958600609  -4581.278288488283 -2110.437734799111 -591.4021406606868  -4647.695058016065 -3161.479066268197 -405.096357913401  -3911.696564822498 3524.282405523627 380.5707617414553  -1957.071687994124 -4499.692014328591 52.93975581156469  -4057.378018710139 307.3442276975311 710.0558427113808  -5773.96080827882 -456.1634995686802 615.7619345630857  -2766.814323362216 -3086.068191971082 -542.1823786841019  -2683.043289589743 -3950.058365060449 -342.6070302034769  -2477.202053997597 -1935.414294680102 -677.0936501866507  3930.270996567711 4092.105219514597 -23.4034296823156  -5291.987197522781 -3442.072754626578 156.7273423323509  -6409.185562587173 -2372.773443791861 286.7798738852904  1425.033505349453 4014.45704901895 374.8019959689184  -531.6698136002956 3598.588582710276 489.8890579082193  -188.8766885964096 2698.708444557068 626.0072074554437  -2338.103708679697 1146.591698428064 724.304999809964  -3713.404065845626 -2543.202653484456 584.2875291209443  1946.66580925008 3041.369389823545 -567.5778221621789  -4359.72458875342 -3818.630046942002 -189.5519302296367  -627.4031711704305 2309.813652771428 -662.079799857747  -1429.109999075479 990.8839041865643 -735.9327534761595  -880.5722887224091 4318.130519713348 274.4750586344372  -1840.202916738784 -702.5746289230761 740.0609592127536  -582.7295887522488 -3772.363431693775 -452.9157170543646  -3856.401194937202 -1154.028946800204 693.8504145593532  -5661.412230851922 -1926.010439524621 518.6876841306216  -6909.554753294989 -952.8744753991259 416.8478678455642  -7413.837756982994 -1254.59381942497 135.5782031372633  -7694.871756274249 -163.8216260533508 -86.43430795570598  -3230.899333863495 1999.723192379087 -657.8722942484208  -4743.834539656014 2266.248395473392 -561.4925009163671  -674.4221385849285 -4350.144930462347 -265.1201427356893  -280.4304198019811 3392.877248954801 -530.4679855290318  3114.051314395552 4132.338920631232 218.8746736080981  6803.600470792944 -1295.102173848304 406.0927663733779  427.4579919634637 -1289.036361871795 -726.2678924093223  1228.999835681402 -4522.484053810241 -125.6775733606534  -2509.263038525963 2962.698707808549 566.9462556396373  7403.047562467402 1273.824345245494 -145.9139175167244  4975.013232597294 3497.216840134216 227.1342588705968  5821.73281099523 3221.174847459419 -9.915739260724484  -5940.334295040333 -2914.434256224295 -229.5039081616642  -2573.674428591544 4404.20025134048 64.63170103313037  -4316.151716997477 3874.605909826485 157.8918628159692  -455.285611762167 -2798.165751043803 -613.4303434708  -2027.384742194834 -511.2018977451767 -744.4762177834068  -4151.006898442294 -841.5843672516431 -697.8570234064955  1790.05463244509 4519.819482585658 -42.101826907433  204.9483360022247 -4597.656614872635 90.44900180147388  4420.22798406767 -3007.057640980994 464.0701472656635  7411.894891090109 1289.980927057589 130.5583086215096  3699.421783014336 -1253.147659069543 694.7610429280568  -6537.004488877381 -2648.261360131483 22.74477369966834  -1485.957429747475 -3035.857805732199 574.4601517563974  4016.6258667039 2280.275324071829 -600.2821264365909  -6806.788791617362 396.4905160771434 474.2545377164436  1826.370758858536 -3440.603598437099 -502.3629925240891  2073.010596660199 2210.047633868975 659.4168419251125  1106.560851491614 4482.520251880285 171.4931491099939  -4936.054700411942 3012.907209637545 -408.9661378005252  6515.020426463629 -2389.789030797012 -241.1269194908907  -133.3121042211528 1184.563890550075 730.7878416333272  5992.809925471866 -2295.779552209902 409.8375824047647  -7498.914248105628 1209.902327407417 -23.0464462651806  -3998.600986071045 -4075.290827770436 7.368128734959359  -2454.586399089679 -4370.339631650568 -138.2345353791559  6932.171654763113 2215.01319825196 -6.264307040366651  -1890.971989785931 2267.028061204757 657.7699700287837  2356.214112670349 2062.98854736287 -667.8027452199241  -2911.680527951839 339.3367168780288 -737.8672622545521  -2871.345930527701 4102.993083899624 264.473443779379  6629.643777308929 -2227.192104925894 256.4578674985279  -536.9996289692671 -4595.1175283626 -81.98737644951288  -5273.404472270827 1248.664757486287 -620.4785980299526  -3716.452091099859 1032.899577244864 -704.3037661740002  -2244.683231380124 3739.330096405839 426.1231690450699  -5437.797126082163 -3447.941938241727 -50.48399494709955  -1.056721385594613 -0.2133215605455504 -0.2161465528842306  -2717.948567933039 -1809.987277781845 20.71760933278033  4096.266041302876 716.189789286256 -2.912613232033072  -1651.424114268168 1888.118832091546 170.4724114336946  3076.303281377119 -1352.304190991863 159.3450210853465  -2051.889760974811 196.4016353711763 -343.1040946226617  -4214.266519796844 366.177304748186 -0.4340081903953581  814.801082366281 2125.916856810824 -146.7986401332274  2888.005440460566 -1060.651041967687 -234.4934994321523  -2272.938195525935 -200.3355413706466 333.7806444329541  2151.788579282434 1592.72427702436 270.8241582213663  -796.5043192216297 -1805.30063762951 -289.7696943093508  697.7923963979952 -2611.136223150213 1.217169668006311  1736.968063704874 694.2192551561102 -379.6218183863669
[...]
<PointData  Scalars="Pressure"> 
<DataArray  type="Float64"  Name="Pressure"  format="ascii">-1.4847511119684398e-01  -1.4739992906106050e-01  -1.2430623313132309e-01  -7.2977519166979657e-02  -1.4382116738713278e-02  1.5272833882050894e-02  3.0603328121635295e-02  1.9472042557816517e-02  -1.5141868729127102e-02  -7.3773542842236056e-02  -1.2360876305902876e-01  -1.0641442676444157e-01  -1.1033184032896438e-01  1.6176118626855734e-02  -5.0280835737899134e-02  -4.0521081784826952e-03  -6.4902537043814565e-03  -9.7068898456617342e-02  -1.4349434675850969e-01  -5.3595222611584351e-02  -8.4708190645776768e-02  -4.1241542480732064e-02  -8.0094863034341629e-02  -4.4695455367391536e-02  -8.2113973083490305e-02  -5.3965545829908909e-02  -9.5782041346946428e-02  -8.1809210578501837e-02  -1.1486146598812245e-01  -1.1252794738375507e-01  -1.2352079063239170e-01  -3.9029711673417553e-02  -4.8610258355021356e-02  -4.7266677361241995e-02  -1.3114896683893509e-02  -1.2731264057119820e-01  -1.0198890980189884e-01  -8.7981627707628726e-02  -8.5053939093053088e-02  1.8461022644157471e-02  -8.0380612115200020e-03  -6.8921016184737734e-03  -1.4123618564876542e-01  -5.3987807641736323e-02  -4.5389796441604825e-02  -1.1264933213323262e-01  -1.1566632295032304e-01  -1.2922351134795748e-01  -1.0423692859502629e-02  -5.3335191996847303e-02  -9.0260998749503510e-02  -9.5106502710430127e-02  -1.1722381333442584e-01  -1.1479483878308390e-01  -1.1543168387031505e-01  -1.0430770234476586e-01  -7.9186523296897321e-02  -1.1279143172861053e-01  -1.0285992038395828e-01  -7.9702171857897783e-02  -6.5939566262785743e-02  -3.5476770750628356e-02  -2.6894997333203614e-02  3.1700922557373903e-03  4.6135656103789618e-03  -2.0971466052959874e-02  -2.9583671889962866e-02  1.0956278911554486e-02  -1.5473825945153197e-02  -1.7998530215746912e-02  4.0445725314787774e-03  -5.9759562276467983e-02  -1.3943390665980426e-01  -6.0896511156031424e-02  -3.9333918321300766e-02  -2.4585854564330382e-02  2.3760831745204720e-02  -1.0874425708113204e-01  -4.4926389532228037e-02  -1.2163817858113138e-01  1.5132543914064708e-02  -7.4159020607418774e-02  -9.7578622552237565e-02  -7.5720784925726925e-02  -6.4958329575762669e-02  -7.8912681780881566e-02  -1.0237103862253079e-01  -9.3074600169560318e-02  -4.5519676612852576e-02  -1.0487532485676374e-01  -9.4806145667998512e-02  -1.2291324766606264e-01  -7.1016481204359480e-02  -4.5794837679146390e-02  -1.0369488602323951e-02  -1.1582632466122640e-01  -1.2496029757219275e-01  -1.3898712798015311e-01  -1.2504983234917944e-01  -8.8052685793640104e-02  -1.1962983951845463e-01  -6.3954991057692284e-02  -1.4162834675023239e-01  -1.4047516417933370e-01  -1.1414345183810980e-01  -1.3861437303893287e-01  -1.2455535819100960e-01  -9.4627362159626305e-02  -4.7643704050553862e-02  2.6421650986869858e-03  1.8556922725144549e-02  3.4349280309891400e-02  -1.0286686118822666e-01  -7.1139902837350943e-02  -1.1665947657994180e-01  -1.3258192433608318e-01  -9.0388404288063662e-02  -7.0865084397340869e-03  -1.5145623563695476e-01  -1.1008800651357123e-01  -1.1036552850875292e-01  1.9907561196379698e-02  -4.8386511621777276e-02  -2.7204468553499148e-02  -2.5473393941601884e-02  -9.2733091235149778e-02  -6.5281379233123632e-02  -1.3550038978144385e-01  -1.3233086713445480e-01  -9.1688825196208579e-02  -1.0387701172966705e-01  -1.1231916356110659e-01  -6.7581450671897941e-02  1.9322563654137589e-02  -9.9110220593385853e-02  -5.4371660026726861e-03  -1.3209959201118729e-01  -8.5554301503568991e-02  -3.3221409519557476e-03  -1.1873931158343971e-01  -1.2903791235593740e-01  -1.1141163904359948e-01  -5.7103701532387731e-02  -1.2230453970607987e-02  -1.4982947974092103e-01  -2.9784538483577306e-02  2.1998331122895027e-02  -6.4660531024188533e-02  -9.6954352311940134e-02  3.9049885488053947e-03  -1.2671712843183330e-01  -1.2574539066972465e-01  -1.1383138715636407e-01  -8.9244421209086766e-02  -8.6412981338119255e-03  -1.1100068886457491e-01  -5.8816923604182489e-02  -9.7294631976344803e-02  -1.0499761226418591e-01  -4.3810929319426907e-02  -4.1608491624450711e-02  -2.9726952614448368e-02  -2.2129951750865782e-03  -4.8729262768318106e-02  -2.5738480503694750e-02  -4.9571509351424389e-02  4.1945908229933746e-03  -5.4401571395968920e-02  -3.1631660037643540e-02  -4.2467316312768455e-02  -4.7753762689751567e-02  -6.3899829326668142e-02  -5.8477225460481411e-02  -6.0330491569953605e-02  -7.0012562454952312e-02  -6.3969946406129310e-02  -3.7911805971642336e-02  -1.1548729139886168e-02  -1.2048256547426832e-02  -7.8257405987536999e-02  -6.4640123234472102e-02  -2.9438958841995592e-02  -3.1037103044280662e-02  -1.7289616323243363e-02  1.0317484300155994e-02  -7.6518325545793964e-02  4.7440093045292053e-04  -3.1712946544095867e-03  -3.2546375346647317e-02  -7.9015096695796896e-03  -8.2389095496225306e-02  -6.4570948261768860e-02  -6.8662905063351529e-02  -6.4681734075652531e-02  -2.5374710933382560e-02  -6.7430965903740911e-02  -6.9467110924864822e-02  -5.9472525270287187e-02  -1.1354291889661326e-02  -4.3636058506815116e-02  -3.0859568796908616e-02  </DataArray> 
</PointData> 
</Piece>
</UnstructuredGrid>
</VTKFile>