<?xml version="1.0"?>
<VTKFile type="UnstructuredGrid"  version="0.1"  >
<UnstructuredGrid>
<Piece  NumberOfPoints="201" NumberOfCells="657">
<Points>
<DataArray  type="Float64"  NumberOfComponents="3"  format="ascii">-20.55972483316215 3.013224845385701 538.5817478169669  -23.12667840898403 -2.593450709602144 -542.6505803452002  4725.511919839098 3.40289247558107 -548.3514092565977  8141.108453062257 -0.6596186732982493 -554.6405301439938  10148.46360369956 -3.869724692043131 -488.1590740489125  11188.03070667568 -2.950808381721621 -273.0723587881191  11512.91157585059 -1.714331002655317 28.60903897492249  11188.78442202917 -2.341426500735842 329.4056917387659  10147.84460062446 -3.178668667317696 542.1635244423053  8145.012962418271 1.629930428424477 603.4546995616914  4723.863228744973 2.609260309687293 580.3061400531784  5736.801922999953 -1108.533322154691 -530.5793696119881  5768.770909282122 860.3508031508849 573.8963706699667  11097.49455659446 -1254.666317658801 -116.8094732804902  8968.226086599316 -1213.313086798124 548.2612031413952  10467.34619270098 1221.565034643246 412.0388899291294  10445.53893103625 1222.140654760422 -362.1150393422701  6326.32594073998 1011.673140515406 -536.17835581806  2354.763696576745 -920.3696380631624 536.9203246809943  8941.786527891712 -1118.484502588969 -503.693796987012  6529.201306800404 -2005.143478017904 -456.8553826063092  8890.085810436285 -2163.56050865464 -362.0079155731393  6347.75609526512 -2823.306255653335 -304.4444285969449  8377.802184869453 -2862.931867466247 -157.3293762668023  5517.02510410482 -3294.64329073891 -116.0076392142203  7536.489686507859 -3161.248192742611 60.10410260056482  4165.613786002598 -3408.206884245221 71.60625543114945  6010.431046742463 -3098.517924057378 253.4859031921671  2255.461566269076 -3206.842336855086 227.156141425844  4122.482213089752 -2680.149725002133 383.3406485874162  -160.5790433405835 -2766.997317350329 347.8965281797622  8741.765572421064 -2685.208182766271 253.7809441826295  8953.671514712087 1120.422713897157 558.3135013574047  8758.780231688999 2167.133002208529 424.3264151865166  9976.254463546407 2213.203995181318 228.4053969867301  1651.846923857539 -2057.168469205437 460.9023495263688  5768.810333816768 -1934.412523524103 499.6461906674286  6574.452607271468 1895.136602907147 510.0313710377569  6081.030939111429 2750.059312228093 363.8109922868654  11117.64815943982 -1225.297649118001 171.3489129913601  9979.130131069889 -2386.776365391488 42.38406424165917  10507.78331074696 -1226.445216460639 -350.3384176753366  2327.577036093597 926.2950811872997 -520.1470832086712  8896.140560200058 1084.164301069338 -509.3852398060582  8702.773990873362 2152.007696530226 -380.3911049147655  2812.879627046155 -3128.936224716701 -239.3346778390829  -1986.199668702075 -3236.207563507126 199.3556307521779  3018.468845981872 -1889.321084503696 -461.5204263665912  9925.042592172018 2232.257015424153 -180.9334172189776  7774.737021802367 2940.337325859602 -193.7319799645324  5933.483272460899 2663.567570845958 -347.7873168095271  4593.841574274964 3225.032191237927 -184.2588559159005  2140.478778892485 2894.516574053486 -312.4535797288046  589.1411605751732 3326.796387856005 -166.0645460103988  -2201.732447318524 2982.738172981971 -304.2454063856977  -3465.364866945765 3364.591307107231 -144.324768890541  -5987.218060403136 3041.095342683673 -279.4521482662895  -688.9751293247123 3462.624260405749 8.454386592507657  -4403.715656125025 -2797.902746518603 335.0021159881968  -5708.055519606861 -3222.145556796001 170.9789013582152  -6781.36941208225 3252.526431538181 -93.79704532426287  -8716.242120791279 2732.378507021536 -234.703783854538  -9099.962369763991 2780.064519011326 -6.036115069861601  -10467.85801844761 1956.138572558835 -177.2869759319025  -10573.55719754956 1866.927845827547 111.5690170431624  -9725.97475895601 1775.396333938257 -421.1312466507891  -8943.087153430164 2544.276520689734 243.0045222733237  -11038.92051109049 831.3443268966603 -311.1699982576602  -10138.57239009288 1492.751715538557 364.0311556809887  -10037.91950051025 502.0440153386362 -539.5273783768266  -10766.60044038988 -593.7765949143303 -423.4828205273291  -8109.146698208173 2040.374680641968 426.0355674642387  -2145.998738258967 -1424.649215060433 492.7485177852977  -7708.568551990238 -2639.501052838989 309.339523578729  -9331.280069721448 -744.4704254811044 -571.0680554608322  -9620.731617569789 -1783.774801300268 -430.5767120365351  -11212.51076649019 532.4462786757362 220.9968373559141  -4699.404668487517 2417.516286829844 -436.6768773319494  -8998.203907995598 901.30819828623 524.5099937483922  3102.107900461651 2354.187224856821 431.1692993491748  -10818.7834967783 -1561.879235969994 -191.3817090471921  -8054.25498422231 280.9778329173507 -604.6917473586644  -6436.069686684834 1447.658716274253 507.2818691412656  -7558.76758171844 -1743.965891015979 -522.7447658493282  -7544.903116318784 -2618.985835226823 -369.2575592963047  -6457.64020106362 2845.828999969202 296.0106161606202  -3333.781460534514 -3441.074370343606 30.01277083219681  -6893.756846304718 253.3638713937174 555.3448499566524  -9257.471134908921 -397.0164278913273 532.4957599160015  -4746.00739497932 -2407.92435623399 -439.9932483706027  -4547.806718609061 -3078.074204699778 -285.5011330412022  -4350.697240315109 -1490.73913447011 -530.0027203604284  6443.832229824548 3298.536953323072 0.8482254776659897  -8374.341955572123 -2919.632167200303 115.4275946837551  -9900.269206454397 -2107.489912679462 247.6895957167172  2461.29345471228 3034.383039083612 289.6509610363568  -942.3306278358727 2692.098368485774 357.7250783878348  -335.9064058375956 2015.383022291643 453.9354195381492  -4132.741873292057 881.0811162915595 533.0505223836926  -6250.038265595277 -2040.315997577628 455.7288266925346  3395.385861428599 2317.438819278331 -416.8292398018755  -7057.933436421803 -3134.094893371846 -182.3739721020118  -1115.08437377681 1725.651718043647 -484.7507066056922  -2566.78869241645 747.8042868385203 -545.7871700797986  -1532.291800719974 3240.797373939027 199.8705762091047  -3296.169373948508 -535.8909875614512 533.7142545560971  -1017.579807004584 -2823.402804804028 -338.8274252603715  -6557.130576620281 -927.6676268479887 541.4259542547255  -9033.294671351221 -1659.295666374976 441.9248472547579  -10581.02243545076 -865.4080776796461 384.7962367688185  -11116.91719542915 -1161.927764110359 110.7283132348395  -11458.00716514314 -153.2682030904077 -117.3114649279647  -5559.766649337904 1576.535300174836 -536.3869399637452  -7782.609514042866 1883.00742788445 -502.1783938947453  -1170.484521325299 -3260.406017689286 -202.7872661462289  -499.1071332489734 2535.316620256959 -392.1998864815297  5201.5399419603 3247.841061277532 191.892190175095  10468.90220955761 -1171.872109052553 419.6748923502348  751.0535174963061 -959.3263379618023 -517.9105366843326  2102.561213241856 -3408.762700976479 -88.42962299166072  -4345.775500846648 2291.180492890353 423.4172093961226  11117.99355200398 1177.695184370464 -120.5259655793876  7957.866118991304 2936.037877341083 223.1995020053731  9078.26234466282 2795.177389499571 15.38887301141645  -9267.726823394447 -2535.112585984324 -235.4139375959849  -4335.59662923933 3420.502596738092 37.18547061853567  -6997.231369544253 3173.895868125194 114.0320014073805  -812.5712382855939 -2089.000079861306 -450.2350673337164  -3609.224259336195 -390.1548857517699 -565.2088637508756  -7023.997933515628 -682.7534777471263 -594.5302735592624  3045.943422636239 3437.828960746235 -22.57772733584806  346.4976357502105 -3443.602233702004 68.51969252110054  7248.952348069661 -2468.469420341553 414.5295623671938  11125.76109152992 1192.580762874183 159.1627130068075  6319.59466502805 -1003.70692861171 578.5433736395972  -10025.66962819573 -2361.252024409114 -3.740707135674365  -2624.850961562132 -2295.132694009352 417.0626300789338  6745.496221171808 1845.296126165864 -471.7843138086508  -10484.70515044299 357.7982058670161 436.1147265647717  3173.728933563259 -2613.879783085076 -368.0088165551203  3652.432092922259 1686.292704809642 504.9887234886072  1888.912532014975 3376.719324179761 135.0406136672863  -7969.152135934512 2523.417848612919 -379.3869051925933  10032.13424464305 -2127.659134143539 -203.2064623387234  -232.6881072288398 883.0001368761843 521.9872818955988  9408.655920381316 -2001.262050337263 403.3297243942453  -11214.96124456885 1123.869752201748 -51.05868042013132  -6511.697062131207 -3306.187530485126 -13.51697795532513  -4148.082095410334 -3384.637756739237 -122.0582435682375  10515.63669892113 2010.061696867582 20.10116035763105  -3345.438644239288 1728.554331001195 480.8530284803846  4143.494605708755 1584.109852500715 -489.9902733580743  -5102.818495682312 263.8363705573936 -585.1731812023605  -4830.520699820465 3211.151661019096 195.6944523789158  10180.23347289568 -1991.416137284929 271.7253079853374  -929.9371161369297 -3444.202122063551 -65.30283384371037  -8583.584189530644 1059.610013243205 -569.6084581615651  -6349.960169061572 826.7940457838985 -585.6864752181559  -3858.513332025399 2875.613761608927 316.5986441363218  -8560.533437457399 -2939.812261891405 -68.74896455493636  -17.45467050503004 -0.4905351037844694 -0.8867071424903248  -4749.272290547594 -1406.127356952596 -0.4476863360682228  6959.759853449375 579.70097174981 19.78206174912397  -2946.920082133488 1434.15138228881 116.2641207653633  5356.11983841094 -1060.908588008458 142.2846934080966  -3670.679518014575 151.1392774890243 -267.993421022427  -7135.194044356987 298.7657853806579 -22.22848608260054  1456.865385981444 1590.103677786145 -101.7889162384262  5064.031600402623 -827.5426451544228 -163.1288530603987  -4042.426764756171 -155.0919597493044 237.3784909773397  3813.798324006466 1220.387450525836 215.265698576034  -1439.305287428767 -1354.263422519706 -215.4585772075047  1244.40713034757 -1951.917896185967 4.423069558499859  3112.289286851975 528.2321760606313 -26
[...]
<PointData  Vectors="Self-Gravity"> 
<DataArray  type="Float64"  Name="Self-Gravity"  NumberOfComponents="3" format="ascii">8.3063788918745225e-07 1.4469967762178165e-06 -2.0896921305926981e-04  -4.5655199782880595e-07 -2.7507847653943515e-06 2.0352586250110420e-04  -1.2269174627092699e-06 1.1975132871812301e-06 1.9980232984957019e-04  -2.9960904129558330e-06 1.6654486226113011e-06 1.7473220787488674e-04  -3.5089873432634113e-06 8.1076392074999846e-07 7.0233449656303487e-05  -3.1998795668418306e-05 1.9891785903036469e-06 1.1401093259017436e-04  -4.8075591965959564e-05 -7.7963779257364110e-07 6.8363439946005762e-06  -3.0796122997207493e-05 -3.8622946576445606e-06 -9.4236806289147844e-05  -6.7790896932474808e-06 1.3040197284222926e-06 -1.0563691891923945e-04  -1.8452382069944385e-06 6.8410828778440781e-07 -1.8134758082401792e-04  7.5169324648023271e-08 1.7909204685969837e-06 -1.8014215460580998e-04  -1.0677419036908782e-06 7.5494468027695348e-06 1.2986101130437166e-04  -1.2940701372438923e-07 -7.2965743323970478e-06 -1.8422963410754867e-04  -5.2503587635263707e-05 3.5369517750142848e-05 6.9122540160184139e-05  -3.1248234718263300e-06 1.0822671048428600e-05 -1.5690610302060561e-04  -1.4645949627405026e-05 -1.6141468630645811e-05 -1.2931785641121408e-04  -1.6794859625182267e-05 -1.8960182960732578e-05 1.4460246176815889e-04  -9.8921064916180762e-07 -7.7938856168925749e-06 1.7201639687475104e-04  8.5881204918432614e-07 6.6970087290180048e-06 -1.5484280982396570e-04  -5.3737461258487222e-06 1.2936873072628858e-05 1.6563744228342210e-04  -2.5429662034182987e-06 1.8493667412329193e-05 1.4989630742196178e-04  -7.5521484906504091e-06 2.9919987990275535e-05 1.2455128593106841e-04  -2.6487099949996028e-06 2.7438729512873989e-05 8.5405184629109215e-05  -1.0123878381209080e-05 4.5802587732272253e-05 6.0312019869523623e-05  -2.3852026824761128e-06 3.3148741235958560e-05 3.9480689463201810e-05  -6.7740592556291178e-06 4.6859296762129593e-05 -2.5275910299435827e-05  -1.7753913120466554e-06 3.6961781299613013e-05 -1.4859234110446613e-05  -2.0174717568163197e-06 2.4855208675049928e-05 -5.6008799825646865e-05  -1.9230483829223814e-08 2.7412443758682267e-05 -7.0111625965671041e-05  -3.9000580855581426e-07 2.1007910213091744e-05 -9.1089882343559756e-05  4.9063948147803308e-07 3.0719773899081783e-05 -1.2280614424719347e-04  -8.7671491266533860e-06 4.1186441777755642e-05 -8.7563525499683023e-05  -4.5772771875786452e-06 -1.4591683263285550e-05 -1.6112215168381043e-04  -5.7861364128240605e-06 -2.4834574575527778e-05 -1.1791865087142722e-04  -1.9220440118071201e-05 -3.6435649336278465e-05 -8.3548297472168609e-05  3.8103983759483987e-07 1.8938263492367967e-05 -1.6229303416400077e-04  -7.0225099328469331e-07 1.8516493844069418e-05 -1.6734325858948113e-04  -2.4529654970725303e-06 -2.0877678966551856e-05 -1.6282619879190021e-04  -2.8132970406131143e-06 -3.3364149206364523e-05 -1.0255140321575884e-04  -4.7028538865017906e-05 2.9833854036793990e-05 -7.6627743436620435e-05  -2.3469465782316585e-05 4.9968732199561297e-05 -1.7314251403181365e-05  -1.9101674651318669e-05 1.9414272626299951e-05 1.5156052322364387e-04  -4.3020471561276135e-07 -9.0258296484061066e-06 1.9815856010673658e-04  -4.7752182320678199e-06 -1.1220625940463877e-05 1.6811202173041114e-04  -6.0865305816649547e-06 -2.2691801236594508e-05 1.0901007250373553e-04  -7.9678439051282462e-07 2.3063805653276947e-05 7.5850220882041906e-05  6.3106252817458492e-07 3.1074541944653150e-05 -7.4478213309786827e-05  -1.0912261016599542e-06 1.7782055248752195e-05 1.6570050259219257e-04  -1.5419688236313750e-05 -3.1158238261417346e-05 7.5765140539398577e-05  -6.1489140024983360e-06 -3.4192075954127178e-05 6.9693669986586472e-05  -2.0473471570969130e-06 -2.8224710952151161e-05 1.1869973522125726e-04  -2.5344962943011938e-06 -3.3905638023444408e-05 6.9367205715389346e-05  -3.9352131489073529e-07 -2.8866157919649638e-05 1.1305453200753023e-04  -3.3287298753809343e-07 -3.4970619195321168e-05 6.4714670330773830e-05  -1.7339077745287710e-07 -3.1306397688512738e-05 9.9199572810212101e-05  8.6750648003465768e-07 -3.2242814105417703e-05 3.4853081005981911e-05  1.7574823134904617e-06 -3.4666756397360792e-05 9.2683727586412838e-05  -2.8083707214921655e-08 -3.5982294283632743e-05 -3.6564128070942818e-06  1.7950426369061337e-06 2.4788221919910329e-05 -1.0115264304297681e-04  1.6212947591584583e-06 2.7028218197872716e-05 -4.9505405480882026e-05  4.5021611860515346e-06 -4.3275794161760782e-05 2.5489814366848299e-05  9.1948299430728189e-06 -3.7238861369564764e-05 8.1133787375786408e-05  1.1945887967714579e-05 -3.7223613509225192e-05 -7.5887793073897780e-06  2.5387638799054021e-05 -3.9194092443574074e-05 5.6046436987479268e-05  2.6647073869858161e-05 -3.5648842528393123e-05 -6.0161209592933140e-05  7.6822106203510502e-06 -1.6160269546974257e-05 8.6366305561118311e-05  1.0048715966733895e-05 -2.8179969160951740e-05 -8.3146305463866922e-05  3.0598412720034947e-05 -1.2486416755425612e-05 1.1796011302377215e-04  1.4246861491560432e-05 -1.8476544029467777e-05 -1.1929828811965156e-04  6.8852266077545753e-06 -1.7342187605092912e-06 1.1057139005788261e-04  2.4705233123205088e-05 8.6127268459813669e-06 1.2566990398074995e-04  4.5820906763906586e-06 -2.5540642297132059e-05 -1.5141280474002361e-04  1.0392053934167825e-06 1.1512593706673477e-05 -1.7236684377841313e-04  4.6647032292774314e-06 2.5952439886022798e-05 -1.0895115870723764e-04  6.1115603084069990e-06 8.1555681581509000e-06 1.6729531367116305e-04  1.1099745642074792e-05 2.2683366022962288e-05 1.5057276356067017e-04  3.9555593546529997e-05 -6.7912153151632377e-06 -9.2061569435690466e-05  9.0382642362152097e-07 -1.8804574233182490e-05 1.1468269694947309e-04  4.1038239388338453e-06 -7.9618677520447842e-06 -1.1124970118507638e-04  2.9440647574819993e-09 -2.1178927095287031e-05 -1.3194100821431313e-04  3.3765777405358477e-05 3.3166169124908970e-05 6.5407718558994945e-05  2.4597188200109123e-06 -1.0085162550823383e-06 1.8195825540105458e-04  1.6834436732595103e-06 -1.3457842871855007e-05 -1.6760103052724672e-04  1.2311083482373725e-06 1.2419766401180108e-05 1.2718098535333149e-04  3.1633463805667853e-06 2.4685711629580996e-05 1.1010991239204653e-04  4.3641502900117818e-06 -3.4169811684027673e-05 -9.9272263499940747e-05  1.1946105357993015e-06 3.5893586069114107e-05 -1.6508022894979910e-05  2.3424226926189964e-06 -2.3613125760748333e-06 -1.8310221523648533e-04  7.1658125588136498e-06 3.0710497660480113e-06 -1.6735807280473793e-04  7.4300662883873396e-07 2.1531633018035848e-05 1.2365274716657777e-04  1.1856846587707722e-06 2.9082123449743124e-05 8.1276384368346409e-05  -4.0800333641599888e-07 1.2608390856984379e-05 1.7702950869316928e-04  -4.4530870606123648e-06 -4.4176847300441206e-05 -2.5423112715267729e-06  8.3326083256763813e-06 3.6707072371309608e-05 -5.8632156280327137e-05  1.4961601567851625e-05 3.0550454027965686e-05 -9.4854928758907913e-05  1.1093451636609792e-07 -2.5469089965167772e-05 -9.2452404135675610e-05  6.3500442390962806e-07 -2.7263121264947458e-05 -1.3179613405794904e-04  3.9195229558322641e-07 -1.5344556271359668e-05 -1.4986223923645325e-04  6.8902382611613120e-07 -5.9576332155286056e-06 -1.7229449804328294e-04  2.5127759113510006e-06 1.9572716799164541e-05 -1.4480267614887021e-04  -8.0398829127995512e-07 -1.8711893281360266e-05 1.4643621843615741e-04  3.3485203519116167e-06 3.1728443257163069e-05 6.6486897834532456e-05  -5.0746151580342214e-07 -1.4109777410475189e-05 1.4165154838904025e-04  -6.2282742615122763e-07 -8.9777196417214739e-06 2.0810679437209404e-04  2.0054253668042785e-07 -3.3881129826894925e-05 -7.1315926427747143e-05  5.5571490191001565e-07 1.8139480595134985e-06 -2.0326184627456306e-04  -4.6627491149478120e-07 2.9640936365269773e-05 1.2054933708263783e-04  2.4932663438180470e-06 7.1133544205444370e-06 -1.6564541376675915e-04  7.4044725018537915e-06 1.6981365613063478e-05 -1.7571407711904278e-04  9.4511439121409082e-06 5.6209979811271518e-06 -9.4272013111780888e-05  3.8251608069303084e-05 2.3758097133090049e-05 -5.3314133000195917e-05  4.1807803548944717e-05 5.5709229689902431e-06 3.7539805313031606e-05  4.8540161444546847e-07 -1.5673456198963033e-05 1.7629537537677559e-04  2.7191789601780909e-06 -1.8260809547445106e-05 1.4086641899391773e-04  -3.9323516967965489e-08 3.2363606605661869e-05 7.8042834148902738e-05  -5.4906518133738060e-07 -1.8042976734063110e-05 9.9293251541327413e-05  -2.2836438466557768e-06 -3.8416725354538606e-05 -6.7726285854838018e-05  -2.0773383885514020e-05 2.0680770944242014e-05 -1.4086873637225884e-04  -4.4634131638917788e-07 6.5428738024712588e-06 1.8389230034841260e-04  -3.9197338059820496e-07 3.4184926295410536e-05 3.9518729318242493e-05  6.7905651754142072e-07 -1.5351806048965854e-05 -1.4263068880265782e-04  -4.1321401391701038e-05 -2.6782920301568963e-05 7.0147525884894880e-05  -5.6329140608179175e-06 -3.3004148266922460e-05 -6.9337197065452326e-05  -1.2860450023363439e-05 -4.3976093878107328e-05 -1.4732072892520681e-05  1.5580265049946844e-05 4.3506300334135979e-05 8.9443397945151865e-05  2.5016297755734248e-06 -3.9382031248784278e-05 -1.8716839474847751e-05  4.7964930615278894e-06 -3.7891564308814548e-05 -4.5413840941956851e-05  -3.0785336846458813e-07 1.6429881118628646e-05 1.3721458835484114e-04  -8.5928216835650450e-07 6.9820182731802833e-06 2.0064850772090863e-04  9.3669980974550134e-07 5.6590037485708612e-06 1.4594566884371018e-04  -5.3058660181619083e-07 -3.3642283362407873e-05 1.5216942689194524e-05  -1.8604553652420204e-07 3.3407533933960258e-05 -2.7920125065541826e-05  -2.4839253566864509e-06 2.2757389133131038e-05 -1.1281429592981050e-04  -4.5844832356780279e-05 -2.8912585229203193e-05 -6.1507258667165343e-05  -7.7347970927805330e-08 7.3122724775203623e-06 -1.6063374918744380e-04  2.3537517566646952e-05 4.2293846654589797e-05 -1.3761486591788088e-05  8.0411185144039780e-07 1.5689681219432983e-05 -1.1812835122810982e-04  -2.0263023122284205e-06 -1.9253317452270265e-05 1.6139222334992487e-04  1.5603386866391735e-05 -2.0256506573377611e-06 -1.5147479499762740e-04  -7.2160713302962333e-07 2.3215868995940379e-05 1.2297873897873689e-04  1.1985717650610681e-07 -9.9970717386979028e-06 -1.5774251537860632e-04  4.1170682104801980e-09 -3.2336186196813329e-05 -4.5943892820282221e-05  4.0297476454051770e-06 -2.8839178069418266e-05 1.2046337843122089e-04  -2.1571452881001913e-05 4.0823307638475890e-05 8.2649224164096913e-05  -3.2319635799266115e-07 -9.5462468676096927e-06 -1.9204212261101053e-04  -7.9241891337768814e-06 2.4290051801231605e-05 -1.3879131035022204e-04  4.7686765482783237e-05 -2.8115781397564235e-05 2.3904325300527554e-06  3.3919245439142347e-06 3.6816417974314889e-05 -4.0019168727935614e-06  1.0428614982149040e-06 2.8950697664310636e-05 3.9667905395824168e-05  -2.5689272899193729e-05 -3.8537648426470098e-05 -9.3109744712450133e-06  9.9796849816070088e-07 -8.6888599004727000e-06 -1.6703885242370884e-04  -7.9340402429592555e-07 -1.5646486748704652e-05 1.6012944323145399e-04  4.5309999822073964e-07 -2.0196372653402863e-06 1.9543873730343901e-04  2.0626572335012562e-06 -3.3811167012927141e-05 -5.8077246750643660e-05  -2.3820164888161714e-05 4.0052473364302809e-05 -9.8634503739990616e-05  2.0634015532469974e-07 3.6569316812446484e-05 1.3474430344442241e-05  4.0161316190804342e-06 -1.2796594361962563e-05 2.0866145110083582e-04  -4.6292964432911281e-07 -5.1756182265059572e-06 2.0207239838380698e-04  1.1924081666585171e-06 -3.0988307354554787e-05 -1.1525356251841643e-04  1.3456143821889703e-05 5.7475144684059344e-05 1.4248622452959191e-05  -1.6203482827539637e-07 4.3361602175945266e-06 -9.5230447760089878e-06  5.9949546271449401e-06 2.1114503657318107e-05 -8.5618655169486608e-06  -1.7496292402766239e-05 -9.0431977989922694e-06 -1.1007893621827289e-05  2.3825132296642565e-06 -1.9359940225587480e-05 -7.1848057475948812e-05  -5.7730823489356078e-06 1.5999576053819619e-05 -6.2490701094035887e-05  1.3614187537672250e-06 -3.7958365896474599e-06 1.3008358818237660e-04  1.6049245750165180e-05 -7.2922048238141948e-06 -6.9085928788774889e-06  -8.7015551565804384e-07 -2.2274003223396909e-05 7.4518091260144224e-05  -5.3674889706913316e-06 1.2613664100331646e-05 8.0069261651357070e-05  2.8898655353412972e-06 3.4310075608030073e-06 -1.2211346375450203e-04  -2.3691724378333347e-06 -1.8038585408278089e-05 -1.2397057781289155e-04  5.3827008253299654e-07 1.5153109277078130e-05 8.5869104941266493e-05  -6.4825214264103150e-07 2.0933552479237273e-05 5.7920870462669761e-06  -1.4996684829144733e-06 -7.8102396373897248e-06 1.5797421867018983e-04  1.0528320156562670e-06 1.6491210620617293e-05 -1.0007844249754850e-04  -1.5109138556173071e-07 5.0375306497126928e-06 -1.5393663668742839e-04  3.4676816359055979e-06 -1.9482743163458280e-05 4.7451929129440869e-05  1.2836045552941279e-05 1.7068158429464907e-05 7.4834886234677721e-05  -1.0009218503402461e-05 1.4422983996656152e-06 -1.1837586484147500e-04  5.0510877757743476e-07 -1.1976098116318267e-05 -1.5264989112681517e-04  -6.3112958505928155e-07 -2.8323055245410900e-05 -5.9780345864370787e-05  -5.7772855427231578e-06 -2.2069584171712859e-05 1.0818059483750286e-04  -5.6119449610422571e-06 -3.0350005449602557e-05 8.0524092255595255e-07  9.6400153943331158e-06 -1.3616531538118460e-05 -1.3419017907144963e-04  -3.1532727536168743e-05 2.3741032340375991e-05 2.0758527420463033e-05  7.5587985768945020e-08 -1.7341357996436656e-05 1.3787089696040483e-04  2.1644739038033327e-05 1.9661639854409589e-05 -9.2463045265681718e-05  -1.5274826183976873e-05 -5.6052206737191988e-06 1.1826076332673073e-04  -8.0639000045547901e-06 3.6847714379570739e-05 3.0942285089190885e-05  1.3795989624828237e-05 -1.3454905523376389e-05 1.3056395560845528e-04  -8.0735379425305298e-07 6.6223325547008141e-06 1.4448747227901505e-04  1.1334425211555917e-06 2.9468326733920423e-05 6.1518954638215920e-05  1.7496740322581062e-06 3.2169947139361925e-05 -6.0210743005652692e-05  -1.1633129526584321e-06 2.6969764378479829e-05 -8.4662321537714013e-05  1.0098123096694771e-05 -3.6070254143765066e-05 -2.9524010239492218e-05  -1.3573508335574207e-06 2.3774291758033226e-05 1.0424895825754158e-04  1.0803184397756693e-06 -3.0992752622595767e-05 1.7804357552972863e-05  1.7188089060224361e-06 1.0800899792339280e-05 1.5898807627354197e-04  -1.5892366433627327e-05 -2.8322144158762866e-05 -1.0326826114393516e-04  -4.9042809978457080e-07 -1.2318821492229701e-05 -6.4504094692500725e-05  -2.4418412601931339e-06 -7.1446104701338221e-06 7.5603889618728091e-05  </DataArray> 
</PointData> 
</Piece>
</UnstructuredGrid>
</VTKFile>