<?xml version="1.0"?>
<VTKFile type="UnstructuredGrid"  version="0.1"  >
<UnstructuredGrid>
<Piece  NumberOfPoints="201" NumberOfCells="657">
<Points>
<DataArray  type="Float64"  NumberOfComponents="3"  format="ascii">-0.2212091801408992 0.04670509574872316 934.1221783892263  -0.0609466115068381 -0.03269193766741028 -934.2279906590978  1831.481635350011 0.05632384464423641 -890.2605713815339  3476.184830838245 0.03616787191718045 -761.0654267515764  4771.336020135677 -0.08144754363574561 -556.7632825245312  5597.088014798803 -0.06521189543373768 -293.9369152977954  5880.636701077633 -0.01309486522088467 0.04328484106800404  5597.159622082818 -0.02381040315794279 293.9533171528598  4771.338810944536 -0.05549023081181079 556.727933707896  3476.141243533973 0.07504446764448167 761.1180265390583  1831.552194360241 0.03692820770319051 890.2249630491542  2316.518089529311 -1650.671380458576 -815.4059926316262  2302.748540582514 1282.068789462585 835.2652771325415  5597.040940914281 -1477.003217303642 -141.073144813457  4044.101693541475 -1606.983475646091 629.4260729545689  5097.196608509797 1492.349795292516 399.1246582079198  5076.314893892987 1492.39578172772 -405.9789396007557  2586.327608598762 1477.872734272744 -805.1886852127346  892.538153311147 -1475.893881800848 889.2839552581933  4018.645415665506 -1480.67351782759 -642.538784034158  2795.905804190371 -2901.295413040054 -661.8372296402204  4145.385556569862 -2849.039085448868 -458.2003375271481  2838.725698726929 -4067.386432871601 -438.6819842466344  3995.291168843806 -3822.679043890445 -216.8470171962133  2503.949164913873 -4842.672651170984 -183.5846513779548  3566.186012589813 -4350.380278678304 46.5903042818466  1871.262065281896 -5171.997476763953 83.70893258284036  2719.033490095531 -4495.143374441392 317.8809182278059  978.995746290586 -5032.062479039836 337.1090081318298  1744.344446958904 -4104.198405571683 556.6003610320695  -67.71729706036623 -4406.656481960835 557.0740627301603  4173.173595481804 -3536.581657667027 269.2503458922806  4018.922224751329 1480.763890695841 642.5715874980394  4061.495141485954 2867.502685856221 473.8000126209241  4910.623858116694 2751.846063085717 215.2943499159917  654.4698211795763 -3272.739964899853 743.6522393468696  2396.773805855223 -2872.462742841507 702.9213816422537  2796.608900399177 2735.74488874512 682.1289373976659  2685.588821758032 4003.663081824638 478.4921405848874  5607.933594057285 -1441.007592937267 141.0829167938431  4939.758192145956 -2974.723714983212 16.3489401221394  5108.709679498315 -1493.76489782118 -395.1234947718817  892.4387255746116 1475.987287798426 -889.2678754046568  3979.306074578561 1443.356619891911 -651.2165966097123  4030.631163081634 2851.999096354366 -483.2277013440496  1216.245410663901 -4881.963717531997 -379.6576052928707  -850.8048074576552 -5091.769449792825 319.1438209403761  1194.628829348468 -2971.9717400336 -763.582134412977  4877.189640491097 2784.431500892132 -222.4260818466652  3643.964834130019 4016.243402747719 -266.7066849957737  2592.543191939484 3903.334679903547 -514.5363805477966  2041.197876733575 4861.100546673915 -286.5073415738767  903.5307798289496 4560.76397733477 -499.6681114266585  263.5443162414575 5259.787243142814 -259.6364928271284  -925.8711436895995 4692.873263958409 -461.2984247133797  -1524.364318571028 5167.735282975023 -196.0079863883513  -2690.992907949166 4415.931770354041 -354.7692139945715  -293.2895461934535 5471.39095471005 17.3855434107796  -1878.779180902258 -4238.94531432332 514.5165499251088  -2588.796488356687 -4691.925010078246 255.4210308702964  -3155.607617450142 4591.900244613681 -96.04262370865851  -4174.157829565607 3595.473532672649 -244.3669536584972  -4443.759795081737 3589.128277511184 21.86817242299096  -5218.809983179084 2370.584709343841 -153.319915324892  -5290.408660766179 2250.416751692064 142.9712578020194  -4643.339337334734 2244.336688861452 -435.2117753981685  -4278.021236565987 3319.944625435745 306.7762319352673  -5526.429892904668 983.0532170716137 -278.6552468382349  -4895.060346211064 1848.434473700818 419.3492758494579  -4715.086381789009 630.0286488269858 -558.3149039453139  -5286.659727964451 -713.5545769226738 -399.7189163928562  -3645.007394647751 2780.929039218504 566.3966106432814  -817.6220621899163 -2266.9142789001 841.5086336995187  -3543.340639148098 -3630.655300943741 421.3545397187469  -4240.684539315804 -964.8717660421937 -635.7543333866541  -4570.061680226305 -2266.450917107129 -451.5536417151334  -5652.655099374764 623.9897446152976 240.621986059532  -1969.999167084416 3653.354716242848 -625.6078624262677  -4039.013120543446 1187.833104764081 657.4351933926773  1268.058701101456 3689.695862389523 663.1615845696429  -5442.633169985707 -1859.6304640295 -161.2792360754306  -3442.122436008684 384.9413162493166 -762.1848486298055  -2680.156633056931 2112.812580055992 754.5902982998116  -3300.395217677597 -2433.326558169652 -659.3611217050751  -3445.104547341248 -3625.362013328684 -443.0289826377586  -2901.578908039595 4080.465895855835 424.4295947098665  -1477.072382861014 -5292.286737233861 60.59148711361151  -2827.248049795116 355.8836154827449 822.3038974918935  -4167.195549665853 -514.9860315831203 662.9622001372866  -1992.360129257298 -3630.056199750563 -627.8507421948917  -1992.111106496829 -4630.042224371726 -389.625594056633  -1723.075513969687 -2296.842788342849 -805.5612531015942  2973.793486958593 4726.098788582239 -26.59545810042682  -4003.707031024731 -3897.315898227211 167.6926488455962  -4827.686313192088 -2634.736335486956 294.256161546803  1051.986662990395 4752.780726178225 435.9775359100627  -380.8807581962756 4284.529799554657 581.0471359030344  -132.3112881524192 3226.807252112811 756.1026395283322  -1604.654331973112 1363.311666188575 870.461051285693  -2665.125954699993 -2965.214893017383 666.9638851569428  1390.387612811065 3607.371859244569 -670.2588894873795  -3289.783597326492 -4383.815364378745 -206.132585117733  -437.7285549668937 2765.415755064573 -804.5428192708307  -972.6001416671896 1185.505624526621 -899.7992796483057  -653.1135660548657 5116.987420676532 319.0653892355638  -1252.358403364276 -839.0935122661027 902.6638543299216  -424.9797713496919 -4487.111988885379 -533.8324179262597  -2700.590878340363 -1350.14398134249 802.5494732808785  -4148.319948619761 -2178.438104490676 556.6898601291332  -5159.547951143074 -1048.86455076793 420.3543706165927  -5636.39886886665 -1362.987753814263 133.5723113021594  -5855.186149814891 -177.3043765848899 -82.81339632304582  -2270.251346062919 2351.755712411524 -767.0585556537278  -3435.440695292973 2605.063505272596 -621.5805359122184  -499.2836466630895 -5155.913707859357 -307.5555033382082  -200.4866655892433 4044.775596738751 -631.2468511852552  2339.579668878622 4820.071398682107 245.9939051501797  5075.138114478722 -1427.761827769577 413.285863857523  295.7325944091053 -1548.764020559025 -895.1145905986551  926.414978641197 -5344.466717446739 -144.8628111341613  -1795.492185376522 3498.143407911113 663.3547913236271  5620.941074210648 1384.871002370716 -144.0962230704635  3751.741205669476 3980.324556067035 243.1762452003271  4425.138962571853 3610.77208273736 -10.83052814783792  -4486.240478660924 -3265.412966939042 -239.4902965174796  -1942.300534330021 5154.959085972948 73.33454760758757  -3261.739753206592 4449.879794701215 172.7153473034745  -320.2189097439797 -3345.623358571962 -739.4899756785313  -1381.329437996244 -610.4457143291276 -903.6061484469545  -2906.667316461124 -981.1020236802324 -800.5691001563006  1353.643028214873 5324.846072761931 -48.10346024038721  158.2766201401408 -5443.168319600799 104.5083786325788  3250.316880049464 -3465.220968092893 512.9174493735386  5630.603220155565 1402.577889555591 127.8969871148562  2587.566670132284 -1467.229730989234 805.682892637909  -4968.789486143401 -2930.575810216428 23.45012478110829  -1055.776224637617 -3611.741455259747 684.3731820929727  2875.4829577331 2652.347577132718 -683.538481289822  -5048.792897099886 438.1579194218897 483.2688020794176  1321.727210095666 -4077.79650712244 -590.1968778373069  1447.948157563781 2628.207225114969 789.0640750345881  834.8660641368861 5299.813437121868 197.6652594914307  -3658.961724009211 3440.149696484358 -443.1970375172559  4916.834788084169 -2649.849964854277 -247.8893604158616  -90.79270394170253 1422.537742831161 902.1548239225747  4458.617359272966 -2576.731893261633 429.8327321369875  -5708.152042852892 1312.001611801514 -21.68420881750149  -3031.455136469192 -4696.538010587742 9.049500331802848  -1850.618211012992 -5121.63047582225 -156.0776025271537  5271.985545906924 2430.289028960972 -6.631647256567607  -1319.391732565745 2696.427080713767 787.9727934249001  1642.37170830586 2448.870174494261 -796.5971611947003  -1997.655413853705 402.0467604909305 -879.025835314368  -2145.973747373456 4796.219167172584 299.1996464777914  5001.36223517183 -2464.793810672874 260.9872515390904  -399.6621435471658 -5438.719945112315 -94.43670647018767  -3787.328536595004 1425.975316368 -680.4678519072916  -2593.627838483198 1209.974138542233 -817.6076383378241  -1644.383660963815 4407.40829700905 492.7152459303139  -4127.740821250391 -3893.377371735713 -52.9455305699566  0.07016787000398328 -0.009842809963840612 -0.0133455228848368  -1887.036883181804 -2141.891531783382 25.87828283254417  2854.679845565543 835.834912449058 -4.263548518787184  -1137.209307149129 2250.511985218435 206.1992065068  2128.11741580978 -1596.05477558 187.8266974859912  -1389.079823324932 233.501611362745 -416.4236849029592  -2936.405800336849 425.5298731548342 0.3090951133347031  560.8804238479072 2545.151344600744 -178.9593183325414  1984.547608353842 -1254.790940704217 -280.5150936906314  -1545.110083269443 -238.3212775397853 403.9981757800786  1479.692646211058 1894.269057088402 325.9506766238845  -546.2794534699227 -2161.053714062226 -353.7725752157176  487.6608568087243 -3121.872394547403 1.715024249796709  1179.575548899235 828.86187439
[...]
<PointData  Vectors="Tidal Force"> 
<DataArray  type="Float64"  Name="Tidal Force"  NumberOfComponents="3" format="ascii">0.0000000000000000e+00 5.9854502085784513e-17 0.0000000000000000e+00  0.0000000000000000e+00 -4.1898151460049156e-17 0.0000000000000000e+00  0.0000000000000000e+00 7.1825402502941418e-17 0.0000000000000000e+00  0.0000000000000000e+00 5.3869051877206061e-17 0.0000000000000000e+00  0.0000000000000000e+00 -1.0175265354583368e-16 0.0000000000000000e+00  0.0000000000000000e+00 -7.7810852711519871e-17 0.0000000000000000e+00  0.0000000000000000e+00 -1.7956350625735355e-17 0.0000000000000000e+00  0.0000000000000000e+00 -2.9927251042892257e-17 0.0000000000000000e+00  0.0000000000000000e+00 -7.1825402502941418e-17 0.0000000000000000e+00  0.0000000000000000e+00 1.0175265354583368e-16 0.0000000000000000e+00  0.0000000000000000e+00 5.3869051877206061e-17 0.0000000000000000e+00  0.0000000000000000e+00 -2.1248767221968104e-12 0.0000000000000000e+00  0.0000000000000000e+00 1.6503801569117533e-12 0.0000000000000000e+00  0.0000000000000000e+00 -1.9012483315039023e-12 0.0000000000000000e+00  0.0000000000000000e+00 -2.0686015193357551e-12 0.0000000000000000e+00  0.0000000000000000e+00 1.9210182735428370e-12 0.0000000000000000e+00  0.0000000000000000e+00 1.9210661571445054e-12 0.0000000000000000e+00  0.0000000000000000e+00 1.9024274651949922e-12 0.0000000000000000e+00  0.0000000000000000e+00 -1.8999016052069720e-12 0.0000000000000000e+00  0.0000000000000000e+00 -1.9060067644197222e-12 0.0000000000000000e+00  0.0000000000000000e+00 -3.7347473520969054e-12 0.0000000000000000e+00  0.0000000000000000e+00 -3.6674349790512321e-12 0.0000000000000000e+00  0.0000000000000000e+00 -5.2358024972050437e-12 0.0000000000000000e+00  0.0000000000000000e+00 -4.9207463545760992e-12 0.0000000000000000e+00  0.0000000000000000e+00 -6.2338044940829975e-12 0.0000000000000000e+00  0.0000000000000000e+00 -5.6000590405485016e-12 0.0000000000000000e+00  0.0000000000000000e+00 -6.6577539323566086e-12 0.0000000000000000e+00  0.0000000000000000e+00 -5.7864339891432172e-12 0.0000000000000000e+00  0.0000000000000000e+00 -6.4776397646800657e-12 0.0000000000000000e+00  0.0000000000000000e+00 -5.2832252192076104e-12 0.0000000000000000e+00  0.0000000000000000e+00 -5.6725907261760555e-12 0.0000000000000000e+00  0.0000000000000000e+00 -4.5524675886924759e-12 0.0000000000000000e+00  0.0000000000000000e+00 1.9061264734238938e-12 0.0000000000000000e+00  0.0000000000000000e+00 3.6912091872797053e-12 0.0000000000000000e+00  0.0000000000000000e+00 3.5422852006400648e-12 0.0000000000000000e+00  0.0000000000000000e+00 -4.2129429256108625e-12 0.0000000000000000e+00  0.0000000000000000e+00 -3.6976435462539268e-12 0.0000000000000000e+00  0.0000000000000000e+00 3.5216473683208859e-12 0.0000000000000000e+00  0.0000000000000000e+00 5.1537838729968922e-12 0.0000000000000000e+00  0.0000000000000000e+00 -1.8549089759890879e-12 0.0000000000000000e+00  0.0000000000000000e+00 -3.8291857854878550e-12 0.0000000000000000e+00  0.0000000000000000e+00 -1.9228378504062445e-12 0.0000000000000000e+00  0.0000000000000000e+00 1.9000213142111432e-12 0.0000000000000000e+00  0.0000000000000000e+00 1.8579795119460881e-12 0.0000000000000000e+00  0.0000000000000000e+00 3.6712477108340958e-12 0.0000000000000000e+00  0.0000000000000000e+00 -6.2844294319471533e-12 0.0000000000000000e+00  0.0000000000000000e+00 -6.5544989308084220e-12 0.0000000000000000e+00  0.0000000000000000e+00 -3.8257680934187575e-12 0.0000000000000000e+00  0.0000000000000000e+00 3.5842432066021997e-12 0.0000000000000000e+00  0.0000000000000000e+00 5.1699326176596371e-12 0.0000000000000000e+00  0.0000000000000000e+00 5.0246358138463959e-12 0.0000000000000000e+00  0.0000000000000000e+00 6.2575487750604276e-12 0.0000000000000000e+00  0.0000000000000000e+00 5.8709665024389707e-12 0.0000000000000000e+00  0.0000000000000000e+00 6.7707831740954039e-12 0.0000000000000000e+00  0.0000000000000000e+00 6.0410251137651018e-12 0.0000000000000000e+00  0.0000000000000000e+00 6.6522712599655507e-12 0.0000000000000000e+00  0.0000000000000000e+00 5.6844778302902926e-12 0.0000000000000000e+00  0.0000000000000000e+00 7.0431690421873918e-12 0.0000000000000000e+00  0.0000000000000000e+00 -5.4566835662522134e-12 0.0000000000000000e+00  0.0000000000000000e+00 -6.0397442274204665e-12 0.0000000000000000e+00  0.0000000000000000e+00 5.9109672661829008e-12 0.0000000000000000e+00  0.0000000000000000e+00 4.6282673301339127e-12 0.0000000000000000e+00  0.0000000000000000e+00 4.6200912051489952e-12 0.0000000000000000e+00  0.0000000000000000e+00 3.0515082107876743e-12 0.0000000000000000e+00  0.0000000000000000e+00 2.8968142501469648e-12 0.0000000000000000e+00  0.0000000000000000e+00 2.8890152085251861e-12 0.0000000000000000e+00  0.0000000000000000e+00 4.2735994780245968e-12 0.0000000000000000e+00  0.0000000000000000e+00 1.2654199412968217e-12 0.0000000000000000e+00  0.0000000000000000e+00 2.3793900359659827e-12 0.0000000000000000e+00  0.0000000000000000e+00 8.1100456146154581e-13 0.0000000000000000e+00  0.0000000000000000e+00 -9.1850923265782349e-13 0.0000000000000000e+00  0.0000000000000000e+00 3.5797780607466001e-12 0.0000000000000000e+00  0.0000000000000000e+00 -2.9181703364911725e-12 0.0000000000000000e+00  0.0000000000000000e+00 -4.6735951445634776e-12 0.0000000000000000e+00  0.0000000000000000e+00 -1.2420407727821142e-12 0.0000000000000000e+00  0.0000000000000000e+00 -2.9174820097171856e-12 0.0000000000000000e+00  0.0000000000000000e+00 8.0321749074018525e-13 0.0000000000000000e+00  0.0000000000000000e+00 4.7028639960834261e-12 0.0000000000000000e+00  0.0000000000000000e+00 1.5290490957336596e-12 0.0000000000000000e+00  0.0000000000000000e+00 4.7496642312643016e-12 0.0000000000000000e+00  0.0000000000000000e+00 -2.3937790582674063e-12 0.0000000000000000e+00  0.0000000000000000e+00 4.9551746641758417e-13 0.0000000000000000e+00  0.0000000000000000e+00 2.7197706184274226e-12 0.0000000000000000e+00  0.0000000000000000e+00 -3.1323417158545265e-12 0.0000000000000000e+00  0.0000000000000000e+00 -4.6667896876763231e-12 0.0000000000000000e+00  0.0000000000000000e+00 5.2526335831915668e-12 0.0000000000000000e+00  0.0000000000000000e+00 -6.8126035147027419e-12 0.0000000000000000e+00  0.0000000000000000e+00 4.5811438806417753e-13 0.0000000000000000e+00  0.0000000000000000e+00 -6.6291853785110639e-13 0.0000000000000000e+00  0.0000000000000000e+00 -4.6728828759886572e-12 0.0000000000000000e+00  0.0000000000000000e+00 -5.9601137978455385e-12 0.0000000000000000e+00  0.0000000000000000e+00 -2.9566807231331659e-12 0.0000000000000000e+00  0.0000000000000000e+00 6.0837313010033090e-12 0.0000000000000000e+00  0.0000000000000000e+00 -5.0168367722246172e-12 0.0000000000000000e+00  0.0000000000000000e+00 -3.3915536080374334e-12 0.0000000000000000e+00  0.0000000000000000e+00 6.1181296833520096e-12 0.0000000000000000e+00  0.0000000000000000e+00 5.5153888618979516e-12 0.0000000000000000e+00  0.0000000000000000e+00 4.1538066775501083e-12 0.0000000000000000e+00  0.0000000000000000e+00 1.7549639284062446e-12 0.0000000000000000e+00  0.0000000000000000e+00 -3.8170413070146499e-12 0.0000000000000000e+00  0.0000000000000000e+00 4.6436858498712115e-12 0.0000000000000000e+00  0.0000000000000000e+00 -5.6431063984485978e-12 0.0000000000000000e+00  0.0000000000000000e+00 3.5598764388030772e-12 0.0000000000000000e+00  0.0000000000000000e+00 1.5260803124302047e-12 0.0000000000000000e+00  0.0000000000000000e+00 6.5869699981899605e-12 0.0000000000000000e+00  0.0000000000000000e+00 -1.0801523009906931e-12 0.0000000000000000e+00  0.0000000000000000e+00 -5.7761569711350888e-12 0.0000000000000000e+00  0.0000000000000000e+00 -1.7380071479653422e-12 0.0000000000000000e+00  0.0000000000000000e+00 -2.8042013790696306e-12 0.0000000000000000e+00  0.0000000000000000e+00 -1.3501439889992499e-12 0.0000000000000000e+00  0.0000000000000000e+00 -1.7544850923895584e-12 0.0000000000000000e+00  0.0000000000000000e+00 -2.2823120190330494e-13 0.0000000000000000e+00  0.0000000000000000e+00 3.0273509337458523e-12 0.0000000000000000e+00  0.0000000000000000e+00 3.3534083338581635e-12 0.0000000000000000e+00  0.0000000000000000e+00 -6.6370801873361786e-12 0.0000000000000000e+00  0.0000000000000000e+00 5.2067610927930202e-12 0.0000000000000000e+00  0.0000000000000000e+00 6.2047092206190977e-12 0.0000000000000000e+00  0.0000000000000000e+00 -1.8378743846954734e-12 0.0000000000000000e+00  0.0000000000000000e+00 -1.9937055808758135e-12 0.0000000000000000e+00  0.0000000000000000e+00 -6.8797782223936179e-12 0.0000000000000000e+00  0.0000000000000000e+00 4.5030756535712866e-12 0.0000000000000000e+00  0.0000000000000000e+00 1.7826466356209203e-12 0.0000000000000000e+00  0.0000000000000000e+00 5.1236890293481591e-12 0.0000000000000000e+00  0.0000000000000000e+00 4.6479534758699284e-12 0.0000000000000000e+00  0.0000000000000000e+00 -4.2033961325281795e-12 0.0000000000000000e+00  0.0000000000000000e+00 6.6358112718919598e-12 0.0000000000000000e+00  0.0000000000000000e+00 5.7281476750120808e-12 0.0000000000000000e+00  0.0000000000000000e+00 -4.3067648576303301e-12 0.0000000000000000e+00  0.0000000000000000e+00 -7.8582377243405629e-13 0.0000000000000000e+00  0.0000000000000000e+00 -1.2629479503606792e-12 0.0000000000000000e+00  0.0000000000000000e+00 6.8545196225134167e-12 0.0000000000000000e+00  0.0000000000000000e+00 -7.0068433448715290e-12 0.0000000000000000e+00  0.0000000000000000e+00 -4.4606507824928823e-12 0.0000000000000000e+00  0.0000000000000000e+00 1.8054452154653955e-12 0.0000000000000000e+00  0.0000000000000000e+00 -1.8887267696675563e-12 0.0000000000000000e+00  0.0000000000000000e+00 -3.7723599212076118e-12 0.0000000000000000e+00  0.0000000000000000e+00 -4.6493181585174840e-12 0.0000000000000000e+00  0.0000000000000000e+00 3.4142863479296145e-12 0.0000000000000000e+00  0.0000000000000000e+00 5.6401495860455605e-13 0.0000000000000000e+00  0.0000000000000000e+00 -5.2492577892739265e-12 0.0000000000000000e+00  0.0000000000000000e+00 3.3832398176977181e-12 0.0000000000000000e+00  0.0000000000000000e+00 6.8223119149410562e-12 0.0000000000000000e+00  0.0000000000000000e+00 4.4283592786176016e-12 0.0000000000000000e+00  0.0000000000000000e+00 -3.4110003357651051e-12 0.0000000000000000e+00  0.0000000000000000e+00 1.8312185640635341e-12 0.0000000000000000e+00  0.0000000000000000e+00 -3.3168970875858346e-12 0.0000000000000000e+00  0.0000000000000000e+00 1.6888426599520786e-12 0.0000000000000000e+00  0.0000000000000000e+00 -6.0456698231269585e-12 0.0000000000000000e+00  0.0000000000000000e+00 -6.5929135502470791e-12 0.0000000000000000e+00  0.0000000000000000e+00 3.1283554060156132e-12 0.0000000000000000e+00  0.0000000000000000e+00 3.4710583431579810e-12 0.0000000000000000e+00  0.0000000000000000e+00 3.1523810031528471e-12 0.0000000000000000e+00  0.0000000000000000e+00 5.1754990863536149e-13 0.0000000000000000e+00  0.0000000000000000e+00 6.1740218173997149e-12 0.0000000000000000e+00  0.0000000000000000e+00 -3.1727854029138912e-12 0.0000000000000000e+00  0.0000000000000000e+00 -7.0011152690219205e-12 0.0000000000000000e+00  0.0000000000000000e+00 1.8356058990664222e-12 0.0000000000000000e+00  0.0000000000000000e+00 1.5575637805273275e-12 0.0000000000000000e+00  0.0000000000000000e+00 5.6735364273090117e-12 0.0000000000000000e+00  0.0000000000000000e+00 -5.0117551249975347e-12 0.0000000000000000e+00  0.0000000000000000e+00 -1.1970900417156902e-17 0.0000000000000000e+00  0.0000000000000000e+00 -2.7572096094820811e-12 0.0000000000000000e+00  0.0000000000000000e+00 1.0759445294940625e-12 0.0000000000000000e+00  0.0000000000000000e+00 2.8970476827050993e-12 0.0000000000000000e+00  0.0000000000000000e+00 -2.0545716240468479e-12 0.0000000000000000e+00  0.0000000000000000e+00 3.0058332402460125e-13 0.0000000000000000e+00  0.0000000000000000e+00 5.4777044673847416e-13 0.0000000000000000e+00  0.0000000000000000e+00 3.2763277060720897e-12 0.0000000000000000e+00  0.0000000000000000e+00 -1.6152695059882322e-12 0.0000000000000000e+00  0.0000000000000000e+00 -3.0678425044068846e-13 0.0000000000000000e+00  0.0000000000000000e+00 2.4384544586242353e-12 0.0000000000000000e+00  0.0000000000000000e+00 -2.7818876206920496e-12 0.0000000000000000e+00  0.0000000000000000e+00 -4.0187330226931184e-12 0.0000000000000000e+00  0.0000000000000000e+00 1.0669783250816120e-12 0.0000000000000000e+00  0.0000000000000000e+00 -3.1288701547335510e-12 0.0000000000000000e+00  0.0000000000000000e+00 -3.8180588335501084e-13 0.0000000000000000e+00  0.0000000000000000e+00 3.0633713731010769e-12 0.0000000000000000e+00  0.0000000000000000e+00 -1.4640351355680808e-12 0.0000000000000000e+00  0.0000000000000000e+00 1.8389098675815576e-13 0.0000000000000000e+00  0.0000000000000000e+00 1.8978485957854292e-12 0.0000000000000000e+00  0.0000000000000000e+00 4.3014677341957375e-12 0.0000000000000000e+00  0.0000000000000000e+00 2.5467192819970023e-12 0.0000000000000000e+00  0.0000000000000000e+00 3.5768392046941881e-12 0.0000000000000000e+00  0.0000000000000000e+00 1.6186153726548278e-12 0.0000000000000000e+00  0.0000000000000000e+00 -1.3436856882241936e-12 0.0000000000000000e+00  0.0000000000000000e+00 2.8272393769224489e-12 0.0000000000000000e+00  0.0000000000000000e+00 -1.4888328557822211e-12 0.0000000000000000e+00  0.0000000000000000e+00 2.5498616433565061e-13 0.0000000000000000e+00  0.0000000000000000e+00 -3.5192891009387065e-12 0.0000000000000000e+00  0.0000000000000000e+00 1.2996208037886390e-12 0.0000000000000000e+00  0.0000000000000000e+00 -1.3805321197082025e-12 0.0000000000000000e+00  0.0000000000000000e+00 -4.4188364273357534e-12 0.0000000000000000e+00  0.0000000000000000e+00 -4.6528376032401275e-12 0.0000000000000000e+00  0.0000000000000000e+00 -4.1020445041463211e-12 0.0000000000000000e+00  0.0000000000000000e+00 3.5064263684404710e-12 0.0000000000000000e+00  0.0000000000000000e+00 -3.9951563343215270e-12 0.0000000000000000e+00  0.0000000000000000e+00 4.7145894930420319e-12 0.0000000000000000e+00  0.0000000000000000e+00 -1.7795940560145452e-12 0.0000000000000000e+00  0.0000000000000000e+00 2.2921161864747007e-12 0.0000000000000000e+00  0.0000000000000000e+00 2.1121396841529548e-12 0.0000000000000000e+00  0.0000000000000000e+00 1.1376245938934633e-12 0.0000000000000000e+00  </DataArray> 
</PointData> 
</Piece>
</UnstructuredGrid>
</VTKFile>