<?xml version="1.0"?>
<VTKFile type="UnstructuredGrid"  version="0.1"  >
<UnstructuredGrid>
<Piece  NumberOfPoints="201" NumberOfCells="657">
<Points>
<DataArray  type="Float64"  NumberOfComponents="3"  format="ascii">-0.2212091801408992 0.04670509574872316 934.1221783892263  -0.0609466115068381 -0.03269193766741028 -934.2279906590978  1831.481635350011 0.05632384464423641 -890.2605713815339  3476.184830838245 0.03616787191718045 -761.0654267515764  4771.336020135677 -0.08144754363574561 -556.7632825245312  5597.088014798803 -0.06521189543373768 -293.9369152977954  5880.636701077633 -0.01309486522088467 0.04328484106800404  5597.159622082818 -0.02381040315794279 293.9533171528598  4771.338810944536 -0.05549023081181079 556.727933707896  3476.141243533973 0.07504446764448167 761.1180265390583  1831.552194360241 0.03692820770319051 890.2249630491542  2316.518089529311 -1650.671380458576 -815.4059926316262  2302.748540582514 1282.068789462585 835.2652771325415  5597.040940914281 -1477.003217303642 -141.073144813457  4044.101693541475 -1606.983475646091 629.4260729545689  5097.196608509797 1492.349795292516 399.1246582079198  5076.314893892987 1492.39578172772 -405.9789396007557  2586.327608598762 1477.872734272744 -805.1886852127346  892.538153311147 -1475.893881800848 889.2839552581933  4018.645415665506 -1480.67351782759 -642.538784034158  2795.905804190371 -2901.295413040054 -661.8372296402204  4145.385556569862 -2849.039085448868 -458.2003375271481  2838.725698726929 -4067.386432871601 -438.6819842466344  3995.291168843806 -3822.679043890445 -216.8470171962133  2503.949164913873 -4842.672651170984 -183.5846513779548  3566.186012589813 -4350.380278678304 46.5903042818466  1871.262065281896 -5171.997476763953 83.70893258284036  2719.033490095531 -4495.143374441392 317.8809182278059  978.995746290586 -5032.062479039836 337.1090081318298  1744.344446958904 -4104.198405571683 556.6003610320695  -67.71729706036623 -4406.656481960835 557.0740627301603  4173.173595481804 -3536.581657667027 269.2503458922806  4018.922224751329 1480.763890695841 642.5715874980394  4061.495141485954 2867.502685856221 473.8000126209241  4910.623858116694 2751.846063085717 215.2943499159917  654.4698211795763 -3272.739964899853 743.6522393468696  2396.773805855223 -2872.462742841507 702.9213816422537  2796.608900399177 2735.74488874512 682.1289373976659  2685.588821758032 4003.663081824638 478.4921405848874  5607.933594057285 -1441.007592937267 141.0829167938431  4939.758192145956 -2974.723714983212 16.3489401221394  5108.709679498315 -1493.76489782118 -395.1234947718817  892.4387255746116 1475.987287798426 -889.2678754046568  3979.306074578561 1443.356619891911 -651.2165966097123  4030.631163081634 2851.999096354366 -483.2277013440496  1216.245410663901 -4881.963717531997 -379.6576052928707  -850.8048074576552 -5091.769449792825 319.1438209403761  1194.628829348468 -2971.9717400336 -763.582134412977  4877.189640491097 2784.431500892132 -222.4260818466652  3643.964834130019 4016.243402747719 -266.7066849957737  2592.543191939484 3903.334679903547 -514.5363805477966  2041.197876733575 4861.100546673915 -286.5073415738767  903.5307798289496 4560.76397733477 -499.6681114266585  263.5443162414575 5259.787243142814 -259.6364928271284  -925.8711436895995 4692.873263958409 -461.2984247133797  -1524.364318571028 5167.735282975023 -196.0079863883513  -2690.992907949166 4415.931770354041 -354.7692139945715  -293.2895461934535 5471.39095471005 17.3855434107796  -1878.779180902258 -4238.94531432332 514.5165499251088  -2588.796488356687 -4691.925010078246 255.4210308702964  -3155.607617450142 4591.900244613681 -96.04262370865851  -4174.157829565607 3595.473532672649 -244.3669536584972  -4443.759795081737 3589.128277511184 21.86817242299096  -5218.809983179084 2370.584709343841 -153.319915324892  -5290.408660766179 2250.416751692064 142.9712578020194  -4643.339337334734 2244.336688861452 -435.2117753981685  -4278.021236565987 3319.944625435745 306.7762319352673  -5526.429892904668 983.0532170716137 -278.6552468382349  -4895.060346211064 1848.434473700818 419.3492758494579  -4715.086381789009 630.0286488269858 -558.3149039453139  -5286.659727964451 -713.5545769226738 -399.7189163928562  -3645.007394647751 2780.929039218504 566.3966106432814  -817.6220621899163 -2266.9142789001 841.5086336995187  -3543.340639148098 -3630.655300943741 421.3545397187469  -4240.684539315804 -964.8717660421937 -635.7543333866541  -4570.061680226305 -2266.450917107129 -451.5536417151334  -5652.655099374764 623.9897446152976 240.621986059532  -1969.999167084416 3653.354716242848 -625.6078624262677  -4039.013120543446 1187.833104764081 657.4351933926773  1268.058701101456 3689.695862389523 663.1615845696429  -5442.633169985707 -1859.6304640295 -161.2792360754306  -3442.122436008684 384.9413162493166 -762.1848486298055  -2680.156633056931 2112.812580055992 754.5902982998116  -3300.395217677597 -2433.326558169652 -659.3611217050751  -3445.104547341248 -3625.362013328684 -443.0289826377586  -2901.578908039595 4080.465895855835 424.4295947098665  -1477.072382861014 -5292.286737233861 60.59148711361151  -2827.248049795116 355.8836154827449 822.3038974918935  -4167.195549665853 -514.9860315831203 662.9622001372866  -1992.360129257298 -3630.056199750563 -627.8507421948917  -1992.111106496829 -4630.042224371726 -389.625594056633  -1723.075513969687 -2296.842788342849 -805.5612531015942  2973.793486958593 4726.098788582239 -26.59545810042682  -4003.707031024731 -3897.315898227211 167.6926488455962  -4827.686313192088 -2634.736335486956 294.256161546803  1051.986662990395 4752.780726178225 435.9775359100627  -380.8807581962756 4284.529799554657 581.0471359030344  -132.3112881524192 3226.807252112811 756.1026395283322  -1604.654331973112 1363.311666188575 870.461051285693  -2665.125954699993 -2965.214893017383 666.9638851569428  1390.387612811065 3607.371859244569 -670.2588894873795  -3289.783597326492 -4383.815364378745 -206.132585117733  -437.7285549668937 2765.415755064573 -804.5428192708307  -972.6001416671896 1185.505624526621 -899.7992796483057  -653.1135660548657 5116.987420676532 319.0653892355638  -1252.358403364276 -839.0935122661027 902.6638543299216  -424.9797713496919 -4487.111988885379 -533.8324179262597  -2700.590878340363 -1350.14398134249 802.5494732808785  -4148.319948619761 -2178.438104490676 556.6898601291332  -5159.547951143074 -1048.86455076793 420.3543706165927  -5636.39886886665 -1362.987753814263 133.5723113021594  -5855.186149814891 -177.3043765848899 -82.81339632304582  -2270.251346062919 2351.755712411524 -767.0585556537278  -3435.440695292973 2605.063505272596 -621.5805359122184  -499.2836466630895 -5155.913707859357 -307.5555033382082  -200.4866655892433 4044.775596738751 -631.2468511852552  2339.579668878622 4820.071398682107 245.9939051501797  5075.138114478722 -1427.761827769577 413.285863857523  295.7325944091053 -1548.764020559025 -895.1145905986551  926.414978641197 -5344.466717446739 -144.8628111341613  -1795.492185376522 3498.143407911113 663.3547913236271  5620.941074210648 1384.871002370716 -144.0962230704635  3751.741205669476 3980.324556067035 243.1762452003271  4425.138962571853 3610.77208273736 -10.83052814783792  -4486.240478660924 -3265.412966939042 -239.4902965174796  -1942.300534330021 5154.959085972948 73.33454760758757  -3261.739753206592 4449.879794701215 172.7153473034745  -320.2189097439797 -3345.623358571962 -739.4899756785313  -1381.329437996244 -610.4457143291276 -903.6061484469545  -2906.667316461124 -981.1020236802324 -800.5691001563006  1353.643028214873 5324.846072761931 -48.10346024038721  158.2766201401408 -5443.168319600799 104.5083786325788  3250.316880049464 -3465.220968092893 512.9174493735386  5630.603220155565 1402.577889555591 127.8969871148562  2587.566670132284 -1467.229730989234 805.682892637909  -4968.789486143401 -2930.575810216428 23.45012478110829  -1055.776224637617 -3611.741455259747 684.3731820929727  2875.4829577331 2652.347577132718 -683.538481289822  -5048.792897099886 438.1579194218897 483.2688020794176  1321.727210095666 -4077.79650712244 -590.1968778373069  1447.948157563781 2628.207225114969 789.0640750345881  834.8660641368861 5299.813437121868 197.6652594914307  -3658.961724009211 3440.149696484358 -443.1970375172559  4916.834788084169 -2649.849964854277 -247.8893604158616  -90.79270394170253 1422.537742831161 902.1548239225747  4458.617359272966 -2576.731893261633 429.8327321369875  -5708.152042852892 1312.001611801514 -21.68420881750149  -3031.455136469192 -4696.538010587742 9.049500331802848  -1850.618211012992 -5121.63047582225 -156.0776025271537  5271.985545906924 2430.289028960972 -6.631647256567607  -1319.391732565745 2696.427080713767 787.9727934249001  1642.37170830586 2448.870174494261 -796.5971611947003  -1997.655413853705 402.0467604909305 -879.025835314368  -2145.973747373456 4796.219167172584 299.1996464777914  5001.36223517183 -2464.793810672874 260.9872515390904  -399.6621435471658 -5438.719945112315 -94.43670647018767  -3787.328536595004 1425.975316368 -680.4678519072916  -2593.627838483198 1209.974138542233 -817.6076383378241  -1644.383660963815 4407.40829700905 492.7152459303139  -4127.740821250391 -3893.377371735713 -52.9455305699566  0.07016787000398328 -0.009842809963840612 -0.0133455228848368  -1887.036883181804 -2141.891531783382 25.87828283254417  2854.679845565543 835.834912449058 -4.263548518787184  -1137.209307149129 2250.511985218435 206.1992065068  2128.11741580978 -1596.05477558 187.8266974859912  -1389.079823324932 233.501611362745 -416.4236849029592  -2936.405800336849 425.5298731548342 0.3090951133347031  560.8804238479072 2545.151344600744 -178.9593183325414  1984.547608353842 -1254.790940704217 -280.5150936906314  -1545.110083269443 -238.3212775397853 403.9981757800786  1479.692646211058 1894.269057088402 325.9506766238845  -546.2794534699227 -2161.053714062226 -353.7725752157176  487.6608568087243 -3121.872394547403 1.715024249796709  1179.575548899235 828.86187439
[...]
<PointData  Vectors="Coriolis"> 
<DataArray  type="Float64"  Name="Coriolis"  NumberOfComponents="3" format="ascii">1.5920656754787331e-10 0.0000000000000000e+00 -2.2969213041081277e-12  -1.5813710160391201e-10 0.0000000000000000e+00 -6.7272473792691859e-13  -1.3268531819907508e-10 0.0000000000000000e+00 5.6025417302209007e-10  -7.5058407966990888e-11 0.0000000000000000e+00 9.8625106508277666e-10  -1.6356775867319618e-11 0.0000000000000000e+00 1.2191829507308486e-09  3.6759928907762173e-12 0.0000000000000000e+00 1.3095244161912757e-09  -4.3554559180537899e-13 0.0000000000000000e+00 1.3306563592116888e-09  -3.8538132302647501e-12 0.0000000000000000e+00 1.3102324155957806e-09  1.6699968029278629e-11 0.0000000000000000e+00 1.2192019020390433e-09  7.4541549679085599e-11 0.0000000000000000e+00 9.8582513772300644e-10  1.3301952614922219e-10 0.0000000000000000e+00 5.6094789619404229e-10  -1.0556897841816928e-10 0.0000000000000000e+00 6.7051015509314836e-10  1.1217031340135106e-10 0.0000000000000000e+00 6.7961427453024352e-10  2.3922214921928401e-12 0.0000000000000000e+00 1.2633835896204353e-09  4.0266213416435457e-11 0.0000000000000000e+00 1.0578879092231425e-09  3.4023396229135044e-12 0.0000000000000000e+00 1.2150256597984132e-09  -4.5355332157229445e-12 0.0000000000000000e+00 1.2132304292869172e-09  -9.9001620580109155e-11 0.0000000000000000e+00 7.4485334432687648e-10  1.4266696999086579e-10 0.0000000000000000e+00 2.7098635391392489e-10  -4.3148649893387363e-11 0.0000000000000000e+00 1.0586882961823119e-09  -6.6729462830597733e-11 0.0000000000000000e+00 7.2478823208849313e-10  -2.2267235588831241e-11 0.0000000000000000e+00 9.8463168261713719e-10  -3.5728245261946203e-11 0.0000000000000000e+00 6.3964457297865191e-10  -9.4674403173553653e-12 0.0000000000000000e+00 8.5373773997881958e-10  -1.4221806427108445e-11 0.0000000000000000e+00 5.0732660402672959e-10  2.0831772481141401e-12 0.0000000000000000e+00 7.2935418586332034e-10  7.2642953413791881e-12 0.0000000000000000e+00 3.6485806181109020e-10  2.4339936747635786e-11 0.0000000000000000e+00 5.7681834008438589e-10  3.5153521266345365e-11 0.0000000000000000e+00 2.0344077118376671e-10  6.1662475436235136e-11 0.0000000000000000e+00 4.1314104153895574e-10  6.7857813970209301e-11 0.0000000000000000e+00 -1.5445531357707529e-11  1.0555488499110519e-11 0.0000000000000000e+00 9.1505470702131770e-10  4.2788726760127972e-11 0.0000000000000000e+00 1.0615145931234321e-09  2.4070016546452858e-11 0.0000000000000000e+00 9.6803212171527661e-10  2.4036177120143304e-12 0.0000000000000000e+00 1.0892298585338488e-09  1.0533417659363874e-10 0.0000000000000000e+00 1.7463950905638492e-10  8.1766523438209122e-11 0.0000000000000000e+00 6.3977926804289263e-10  7.0559939345852082e-11 0.0000000000000000e+00 7.3489250030655293e-10  4.2652936667761594e-11 0.0000000000000000e+00 6.1523984876959540e-10  -2.6544893464609513e-12 0.0000000000000000e+00 1.2675361070883490e-09  -4.0671221107441082e-13 0.0000000000000000e+00 1.0728186669187254e-09  -4.2058944658889466e-12 0.0000000000000000e+00 1.2200534115346281e-09  -1.4283416924452158e-10 0.0000000000000000e+00 2.6988086383746706e-10  -4.4980864275735788e-11 0.0000000000000000e+00 1.0550021613891933e-09  -2.5371850256949499e-11 0.0000000000000000e+00 9.6287692951746301e-10  -3.9770589763018377e-11 0.0000000000000000e+00 2.5775648875563289e-10  3.3235779534055675e-11 0.0000000000000000e+00 -1.7941660969897130e-10  -1.0771224487060086e-10 0.0000000000000000e+00 3.2888343841285214e-10  -3.1380354142023975e-12 0.0000000000000000e+00 1.0830677206091044e-09  -1.4092073834376151e-11 0.0000000000000000e+00 7.8026651234263753e-10  -4.8254344149206621e-11 0.0000000000000000e+00 6.0739544975196513e-10  -2.5621656842488918e-11 0.0000000000000000e+00 4.2301235112256417e-10  -5.7346752158781784e-11 0.0000000000000000e+00 2.0485962248659324e-10  -2.6809013624095892e-11 0.0000000000000000e+00 5.0313726245508528e-11  -5.2384662813780591e-11 0.0000000000000000e+00 -2.0643086227126331e-10  -1.8236362762012290e-11 0.0000000000000000e+00 -3.0598320822065405e-10  -2.8080108802770638e-11 0.0000000000000000e+00 -5.8351021124195026e-10  1.3425984177765817e-12 0.0000000000000000e+00 -5.9905861353330287e-11  5.4092579978925571e-11 0.0000000000000000e+00 -4.3546538692743434e-10  1.9785739893078421e-11 0.0000000000000000e+00 -5.3656586344410886e-10  -5.8934753187657309e-12 0.0000000000000000e+00 -6.4425551176006112e-10  -8.4937213145292875e-12 0.0000000000000000e+00 -9.0653685854507329e-10  7.6509631214707159e-13 0.0000000000000000e+00 -9.3923898891539479e-10  4.7505771676186765e-13 0.0000000000000000e+00 -1.1608415711002611e-09  4.1598521056428790e-13 0.0000000000000000e+00 -1.1771207128403159e-09  -1.2395136225146480e-11 0.0000000000000000e+00 -1.1039298327105069e-09  1.0191101203109592e-11 0.0000000000000000e+00 -9.5135799062036649e-10  3.2006908070506361e-12 0.0000000000000000e+00 -1.2798395325831911e-09  8.6590355014589847e-12 0.0000000000000000e+00 -1.1667598104331556e-09  -1.7835643632838662e-11 0.0000000000000000e+00 -1.2018951975348780e-09  -5.1575961311776305e-13 0.0000000000000000e+00 -1.2659751423622933e-09  4.0395198112375735e-11 0.0000000000000000e+00 -9.0585378661155942e-10  1.3156409092493946e-10 0.0000000000000000e+00 -2.4019408839952602e-10  2.7385083766871740e-11 0.0000000000000000e+00 -8.1019895113659417e-10  -3.5972434116553492e-11 0.0000000000000000e+00 -1.1188226811284125e-09  -1.4190474254931348e-11 0.0000000000000000e+00 -1.0919090551771064e-09  -4.1462941436812574e-12 0.0000000000000000e+00 -1.3024332078375861e-09  -7.0906040407652254e-11 0.0000000000000000e+00 -4.9093875776060135e-10  4.2542866049955585e-11 0.0000000000000000e+00 -1.0757078408875922e-09  8.4035120177099798e-11 0.0000000000000000e+00 3.2323301026610550e-10  2.6237086119824058e-12 0.0000000000000000e+00 -1.2176777650153836e-09  -7.4067099379573998e-11 0.0000000000000000e+00 -9.7289602631214461e-10  8.7574199104703916e-11 0.0000000000000000e+00 -7.4323386817598444e-10  -5.8031972591625365e-11 0.0000000000000000e+00 -8.6146351110250206e-10  -2.9779237193959790e-11 0.0000000000000000e+00 -7.9333887452600217e-10  3.3604281696841817e-11 0.0000000000000000e+00 -6.5075557774142696e-10  5.4375545670434408e-12 0.0000000000000000e+00 -2.8792991437817151e-10  1.0072914791683720e-10 0.0000000000000000e+00 -8.2977618967802118e-10  4.1948755367876247e-11 0.0000000000000000e+00 -1.1174478918426447e-09  -7.0847646195293547e-11 0.0000000000000000e+00 -4.9804800302062902e-10  -3.6285710384656029e-11 0.0000000000000000e+00 -4.3018736170527897e-10  -1.1189827704909425e-10 0.0000000000000000e+00 -4.9300852037331071e-10  -2.0857405580939569e-12 0.0000000000000000e+00 6.0092560937811693e-10  7.3169050582659356e-12 0.0000000000000000e+00 -8.5097793314435233e-10  4.3327778525037509e-12 0.0000000000000000e+00 -1.0915950945123659e-09  4.7299381325519746e-11 0.0000000000000000e+00 2.2931881386680272e-10  7.3330160056010398e-11 0.0000000000000000e+00 -9.4358206219996732e-11  1.0963118518812132e-10 0.0000000000000000e+00 -3.6368923887567187e-11  1.2899918808316101e-10 0.0000000000000000e+00 -4.8234545990868622e-10  6.9346212620301471e-11 0.0000000000000000e+00 -6.9176855821217729e-10  -8.4811223947298512e-11 0.0000000000000000e+00 3.5520498957986155e-10  -1.2214987336515913e-11 0.0000000000000000e+00 -6.8716080964840246e-10  -1.2230260779090010e-10 0.0000000000000000e+00 -1.2253980600074932e-10  -1.4474874826184471e-10 0.0000000000000000e+00 -2.9837904337255631e-10  3.3525685517690072e-11 0.0000000000000000e+00 -1.3728059511857164e-10  1.4422712180207823e-10 0.0000000000000000e+00 -3.8487485164886185e-10  -6.4251227524211614e-11 0.0000000000000000e+00 -9.7559635963848621e-11  9.6216086096517600e-11 0.0000000000000000e+00 -7.7508636918195448e-10  3.1377889540599077e-11 0.0000000000000000e+00 -1.0390369063035470e-09  1.9876880478916379e-12 0.0000000000000000e+00 -1.2405069097352519e-09  -2.7080943283598486e-12 0.0000000000000000e+00 -1.2659428415590102e-09  2.9006187293641616e-12 0.0000000000000000e+00 -1.3233433544643607e-09  -9.4827912579740021e-11 0.0000000000000000e+00 -6.3416663842153210e-10  -5.0682983486479623e-11 0.0000000000000000e+00 -8.8027660158993475e-10  -3.2150525772889892e-11 0.0000000000000000e+00 -1.0627844555997397e-10  -8.2134439751652536e-11 0.0000000000000000e+00 -5.0259468775720918e-11  2.0355359328376083e-11 0.0000000000000000e+00 4.8083394157266831e-10  5.6293914185204359e-12 0.0000000000000000e+00 1.2181656717131329e-09  -1.4818019438594879e-10 0.0000000000000000e+00 8.6434855140767913e-11  -1.4160597952326591e-11 0.0000000000000000e+00 1.8095020931674453e-10  7.9877262616992154e-11 0.0000000000000000e+00 -4.5778786292036437e-10  2.5946516353264002e-12 0.0000000000000000e+00 1.2683757534767770e-09  1.1713570519537263e-11 0.0000000000000000e+00 8.0035332110114918e-10  -2.8142772812467864e-13 0.0000000000000000e+00 9.3500981382630346e-10  -7.0206218129094514e-12 0.0000000000000000e+00 -9.8446704203183255e-10  6.0385727820150144e-12 0.0000000000000000e+00 -3.8370708520094053e-10  1.0368360593267326e-11 0.0000000000000000e+00 -6.7359548703159702e-10  -1.0617397814487089e-10 0.0000000000000000e+00 -8.6001493966676806e-11  -1.4172903464256857e-10 0.0000000000000000e+00 -4.2507623170486283e-10  -9.2320673722741478e-11 0.0000000000000000e+00 -8.3913207785772395e-10  -4.1770465721259770e-12 0.0000000000000000e+00 2.6091478774811961e-10  1.0342607890495593e-11 0.0000000000000000e+00 2.7048555728144655e-11  3.9160883890625452e-11 0.0000000000000000e+00 7.7116165597800891e-10  -2.3600918888176504e-12 0.0000000000000000e+00 1.2677553992976074e-09  9.8636359388475054e-11 0.0000000000000000e+00 7.4307562099934679e-10  6.4900263245439319e-14 0.0000000000000000e+00 -1.0779364511883835e-09  9.0803829867320941e-11 0.0000000000000000e+00 -2.7305205376356310e-10  -7.0646253811461879e-11 0.0000000000000000e+00 7.5781059518257288e-10  7.3260436448331304e-12 0.0000000000000000e+00 -1.2469121603487308e-09  -7.0650810502933204e-11 0.0000000000000000e+00 3.1793880415780755e-10  1.1159270174804409e-10 0.0000000000000000e+00 4.0574024243932044e-10  1.9417958075274922e-11 0.0000000000000000e+00 1.6239703647715435e-10  -2.6776038586002948e-11 0.0000000000000000e+00 -8.4860089602952181e-10  -3.9073486640488488e-12 0.0000000000000000e+00 1.1046404446079499e-09  1.5087575256365783e-10 0.0000000000000000e+00 -2.8691872850845298e-11  1.5587926271240174e-11 0.0000000000000000e+00 1.0541208125152707e-09  7.6858192350520864e-13 0.0000000000000000e+00 -1.2776666168454680e-09  1.1310495625117674e-12 0.0000000000000000e+00 -6.1044566575771504e-10  -1.3215225133787269e-11 0.0000000000000000e+00 -3.6686481925758816e-10  2.0650742831593557e-13 0.0000000000000000e+00 1.1593483973871964e-09  1.1155868287544504e-10 0.0000000000000000e+00 -3.6945857676707792e-10  -1.1077016479775470e-10 0.0000000000000000e+00 4.6522127710458143e-10  -1.2654001287696499e-10 0.0000000000000000e+00 -6.0616977566135821e-10  2.5795989254143145e-11 0.0000000000000000e+00 -4.5010561459161878e-10  2.6981653018815521e-12 0.0000000000000000e+00 1.1310288015340972e-09  -9.3187245419818640e-12 0.0000000000000000e+00 -8.2605395765122509e-11  -5.3463589617722519e-11 0.0000000000000000e+00 -1.0198423596920771e-09  -1.0108825270859726e-10 0.0000000000000000e+00 -7.5199476161502084e-10  5.2158997224178257e-11 0.0000000000000000e+00 -3.7553577510041593e-10  -1.9381116002769397e-12 0.0000000000000000e+00 -8.6686588357010426e-10  1.3568198033439910e-13 0.0000000000000000e+00 6.3014267922354211e-13  4.3765497956568994e-12 0.0000000000000000e+00 -5.4863499703379209e-10  -8.0425890137667019e-13 0.0000000000000000e+00 8.4097991290662979e-10  3.1015951297447533e-11 0.0000000000000000e+00 -3.3559877420795609e-10  2.5820378748085301e-11 0.0000000000000000e+00 6.3073559774929613e-10  -6.5941628693014583e-11 0.0000000000000000e+00 -4.3811957247755486e-10  4.0348401825745228e-13 0.0000000000000000e+00 -8.6826278502922838e-10  -2.7852525983259131e-11 0.0000000000000000e+00 1.6511732327928110e-10  -4.0939172828460296e-11 0.0000000000000000e+00 6.0044879839207862e-10  6.2870763949760126e-11 0.0000000000000000e+00 -4.8179525010872955e-10  4.8758654029782089e-11 0.0000000000000000e+00 4.4208303587247823e-10  -5.5979956829898913e-11 0.0000000000000000e+00 -1.6209822809368368e-10  4.2907499102109442e-13 0.0000000000000000e+00 1.3510866922051129e-10  -7.4553011922368554e-11 0.0000000000000000e+00 3.6674955385707202e-10  5.5186172873167046e-11 0.0000000000000000e+00 -1.3537191077864248e-10  8.1777128386377664e-11 0.0000000000000000e+00 3.2671165064883040e-10  -2.3616775558924293e-11 0.0000000000000000e+00 -5.7073127119746421e-10  -3.0238232248269489e-11 0.0000000000000000e+00 -8.5364042826882401e-10  3.9829809156662967e-11 0.0000000000000000e+00 8.8185087618906694e-10  8.6738460361905314e-11 0.0000000000000000e+00 -1.2582975660663310e-10  1.9060963475751104e-11 0.0000000000000000e+00 1.6540511984668195e-10  -3.4867661942010819e-11 0.0000000000000000e+00 7.2206388675777310e-10  3.3272816437252854e-12 0.0000000000000000e+00 6.8061502400804371e-10  3.7179238207019346e-11 0.0000000000000000e+00 -8.4159545573825951e-10  -4.9637806478894637e-12 0.0000000000000000e+00 1.0012404570283068e-09  -7.2694104036729831e-11 0.0000000000000000e+00 -2.1195613831942075e-10  1.9971725628236948e-11 0.0000000000000000e+00 -9.6806141947906852e-10  -3.1734033886194978e-11 0.0000000000000000e+00 9.7099503070129969e-10  -9.3033491475338408e-12 0.0000000000000000e+00 6.7404742470035059e-10  -3.3473324961913963e-11 0.0000000000000000e+00 -9.1873592770547133e-10  -9.3655495401499750e-11 0.0000000000000000e+00 2.2920128988349655e-10  -2.1156555190245773e-11 0.0000000000000000e+00 -3.0756759249109983e-10  1.9628890796428845e-11 0.0000000000000000e+00 -2.9149054638470933e-10  3.9003902051135612e-11 0.0000000000000000e+00 3.6072471187897702e-10  1.2116244341601551e-11 0.0000000000000000e+00 -7.7013901519315292e-10  -4.2039310065893104e-11 0.0000000000000000e+00 3.0842443054099757e-10  -9.1652468644588539e-12 0.0000000000000000e+00 -2.1009171534347663e-10  -7.4640195700294573e-11 0.0000000000000000e+00 -5.8080305866394510e-10  2.2585969197184128e-11 0.0000000000000000e+00 9.2161919132268101e-10  1.2269086318259082e-11 0.0000000000000000e+00 1.2889007439101408e-10  -2.5591962029650060e-11 0.0000000000000000e+00 3.9363747737635457e-10  </DataArray> 
</PointData> 
</Piece>
</UnstructuredGrid>
</VTKFile>