<?xml version="1.0"?>
<VTKFile type="UnstructuredGrid"  version="0.1"  >
<UnstructuredGrid>
<Piece  NumberOfPoints="201" NumberOfCells="657">
<Points>
<DataArray  type="Float64"  NumberOfComponents="3"  format="ascii">-0.08463463640124536 0.2040301235002275 1435.792450154697  -0.1237182440838965 1.461696139475464 -1435.71681947085  77.32809293020597 1.878893641595824 -1363.335773637542  144.7721524768264 2.188098077426989 -1155.109977142337  195.0002282645027 -0.05680045914722268 -835.080384362849  224.8854096737188 -1.015067417499112 -437.3116817714513  235.4096289280107 -1.509255193611371 -0.08312274264140841  224.7418830800193 -0.1362948912142914 437.3721195335588  194.7032046128825 1.082848000756657 834.1751638515296  144.7840451858794 0.6897878411395105 1154.356926217124  77.35760067522634 0.3794822924836476 1363.108528569255  99.30444945697207 -699.3759698340828 -1255.477650019121  97.8754160140239 544.4243366769618 1281.936913725438  229.308061354447 -680.2856267999466 -211.4559373497287  170.6095980882652 -704.0800162680752 958.5034807750881  210.5720284453541 674.4554408715045 600.5807853730788  209.9167139646377 674.8092621266236 -611.5633097081909  110.55708820122 629.8003921457358 -1236.867229221778  38.41076879457209 -616.6302347296278 1373.682738258258  168.6269611479931 -649.8329148765282 -976.5773405289063  124.1218981827741 -1237.868158631675 -1032.9981839473  181.1587683967394 -1250.380232720652 -708.0730473513569  132.5722337012863 -1733.838749175426 -700.197358281237  182.6408117224736 -1669.148389239171 -342.2656841822028  122.0861455095915 -2054.15115709846 -298.8967427112014  168.3238944351176 -1880.219491489384 74.47323474648977  93.36301496650476 -2177.450358565357 137.5079200577107  130.3247950676644 -1912.181319861902 512.5385637456994  48.43146419881914 -2101.694726033393 553.5286890626514  82.45548433065223 -1723.471639210852 892.6506403575036  -3.501814684183338 -1834.73883332609 901.4341999722492  187.2342812223636 -1552.344785483276 421.5049196863598  168.6009917594827 649.5466642386585 976.843231478288  178.3279249966386 1255.278577155836 733.4054742504673  212.0491960666101 1234.321798648758 329.9404803801591  29.87198255329824 -1368.525287472806 1175.002686071713  106.263571627037 -1218.585089454865 1098.747659535778  123.8818784748763 1167.167620248365 1062.487750206035  125.3517950647748 1701.423994313165 763.1246225767163  229.479133575445 -662.7488406105188 211.143247053228  213.9059874932675 -1334.685158476325 24.87122647749883  210.8783490146941 -675.6729798461929 -595.2695194056831  38.39433524825981 617.9511005018793 -1374.412814750801  167.3533575485127 632.6672725894456 -990.287437981275  176.8391711661467 1246.828422492343 -748.1936437154085  59.55078715384052 -2042.059504143331 -620.9992784615474  -42.54693539850165 -2125.582752526558 524.9806172493282  53.6258961947482 -1243.365370367391 -1200.828694159488  210.5942855063808 1248.190919073231 -341.5035891066524  169.2137645321197 1737.009898211959 -423.4955431031531  120.4881328399045 1656.135282592769 -819.8151599755874  100.1486237361526 2047.833043105575 -467.3078582563339  43.51005179125725 1902.692038736506 -810.9229074017474  13.64580862277606 2191.587327583384 -429.0478949931951  -45.02320961992035 1958.277665770414 -750.985438996849  -75.87665359334667 2166.154434839492 -322.8772258078093  -128.1070675032108 1876.08780557975 -571.2729915894744  -14.76038399116582 2281.255781727647 28.57413929270515  -89.44243797837976 -1782.815437216078 827.1778591488181  -125.9724748705528 -1992.077680996913 414.0896749826073  -151.4677812937017 1967.87666994615 -155.274438304412  -188.6254878433687 1576.921740145861 -383.1235881270873  -200.2922986825477 1585.500158146596 34.0575472979658  -220.2824775314219 1073.975728604892 -232.8127118623506  -222.2781757467839 1021.864793392187 216.8601643513315  -197.4889824551829 999.7662703492166 -664.2589813149336  -190.4629688626638 1460.295998646715 477.6461615930986  -223.7695414625531 451.5996513981812 -416.2508814991061  -204.9644014753216 831.5653205605278 634.8700853284686  -193.5033859078908 282.802723561007 -838.3052558034254  -214.9850030190929 -324.0118968634816 -597.6023778870963  -160.3341887637661 1205.394647643819 878.5421899559851  -35.95969985296824 -946.5986634737282 1311.160443904132  -161.1539081710391 -1569.779889181406 663.3897646489349  -175.7780925496437 -425.2094024491016 -960.8628444889545  -194.8217209899053 -1007.16459564466 -689.663234565574  -227.5897582933451 287.1168032101989 357.8794197336251  -90.58752009751237 1537.96831879717 -993.8992888308366  -168.7075165038715 520.7986752117795 996.6926014934257  58.7177599205562 1543.357731786623 1055.930818816846  -225.6896846427034 -850.8324909602686 -243.0116836250426  -143.8179452529875 167.9977092582361 -1157.340933179686  -115.6921490694537 902.821670244002 1165.222724833665  -143.835600725876 -1047.749651458586 -1019.328844750579  -156.8867292238782 -1563.820130183176 -698.2028088373366  -135.4835151696945 1741.382620905516 677.4116418999782  -74.46215218918644 -2220.242211169387 99.83839745851762  -118.9750699007177 152.5750980575056 1253.773779083122  -172.0259026162084 -225.8535317266525 1000.047500551477  -91.62656304252262 -1528.659551955875 -996.250071042621  -96.66800625804882 -1950.271719901189 -632.1246141920118  -75.55225282977703 -965.3726193233056 -1252.761349035902  144.1581427022139 2018.22275450446 -43.33408464920958  -183.6228765882649 -1703.479567648711 265.1804107887272  -207.530442537088 -1178.32982771626 450.6612910727919  51.18589566511847 1986.397904760554 710.5841670216629  -18.0649235678803 1785.160683934939 937.4256863503406  -5.780530741947624 1345.296005828824 1196.116515084483  -68.44472509498546 575.3323527848918 1340.469240339988  -118.1403001781142 -1263.102540905025 1042.28650338798  64.04265714452158 1510.852863943978 -1065.52176137167  -155.7423702481104 -1886.45442405789 -330.9205437265682  -19.51597021987194 1152.157097082274 -1263.239221626246  -41.84621979693912 496.5836324917395 -1387.051424196163  -32.53006200016915 2134.929331094484 525.1826011002064  -53.40276754970674 -354.5345317763358 1386.547922190288  -20.63984553236524 -1870.132885901415 -865.4493056262028  -114.994803947544 -574.6627696941255 1230.092316158595  -177.279033793853 -956.045664451119 852.7102906736392  -211.1419058479249 -476.4075941378998 629.8552924239972  -229.854312425939 -628.5593008055837 200.0720510454526  -234.2121807512734 -83.46151827026205 -122.7578612368768  -99.31971968306223 995.6862294044709 -1190.980319101498  -149.9212481001155 1123.400385146329 -962.5773949795072  -25.08795510297038 -2150.323554694168 -506.9967085130576  -9.238989123011114 1684.426807625661 -1014.021986293683  114.2831420711992 2038.48405046068 400.5533021049106  210.090160653381 -645.5168541636805 622.4544752860093  12.81219679888118 -645.0917605707775 -1384.785899646648  46.67201840130286 -2234.72524608666 -239.8571487831211  -82.26899522908126 1470.527487900678 1051.059163209802  229.6278754866242 637.4099856003985 -215.3394040078728  173.6231434053021 1726.494619934115 385.5637404898484  199.7834109845051 1594.325203686086 -16.81069022394347  -198.9224703309693 -1443.900325876609 -372.0704688060832  -96.75993469936714 2170.35769676441 120.4982366171501  -155.3883418035976 1909.836208520536 277.5582981830606  -14.52917272772549 -1394.170867237741 -1171.669670588783  -58.77484428521322 -256.4255865040115 -1387.07442811289  -122.6398685200639 -419.3108094380076 -1222.267302473744  68.36243663562986 2231.109105120308 -80.04423685752612  8.06864300849068 -2270.697895660594 173.3678079311017  146.6254156974365 -1489.682522079408 805.9732465238674  229.9004870657612 645.6328691073606 191.1545397394905  110.6850526399714 -623.3577018670288 1237.148870892352  -215.2490114503681 -1317.648886725015 35.97143599355596  -48.49234718773519 -1510.886303099123 1087.889115618531  126.7199703487734 1131.291416908072 -1063.24825224293  -205.504570795883 199.0223522929735 722.7526924034299  62.0862924682818 -1706.00693373499 -947.0093256222109  64.50560478308107 1103.378891653046 1234.036019790054  42.07724242008651 2212.323661795599 326.7238778008911  -165.0642679560509 1489.780779160978 -695.3378598602369  210.7332948258403 -1188.39391317102 -379.8270382961394  -3.916761621931218 596.5612371525358 1393.758946982695  192.1506951868971 -1140.818692882534 659.692742070054  -232.6157769530292 606.2367428017695 -32.42147567114837  -146.7163827608442 -2009.289337940536 14.64617669611415  -92.34966180157276 -2155.735391815758 -256.4603562258937  223.4334722434913 1102.399405357415 -10.13246021463471  -58.61131323805246 1130.987228377697 1233.761702052047  72.60510067303647 1028.257967123392 -1242.079839196702  -84.82938001221837 172.3287733253047 -1345.786661671244  -104.4798141608094 2023.229320205314 487.0663437096069  212.9416531992608 -1109.084097643317 397.7925606321252  -20.31840816867474 -2269.910326082187 -156.6813280140915  -159.8062384280743 621.2781328883359 -1036.789031198984  -110.3829095597533 515.3759592709634 -1253.213198020669  -78.35043852620703 1849.689742443061 795.465731452935  -189.436061706562 -1705.142008829736 -83.9366207762429  -0.219885778138101 -0.4270367798776966 -0.2629312866606529  -78.47931372326441 -985.0455146958541 40.01957197381769  113.9100527840995 391.5563657914773 -7.082650527699055  -47.47112771815426 1028.115596630568 317.6085759737598  86.96417248762427 -737.4097829952722 286.0448332461327  -55.81744217683553 105.9663003474379 -631.1728374079141  -116.2945820892383 200.2528431271068 0.3238504065200503  23.73146619029725 1157.141977044865 -277.405860053332  80.50350083916967 -579.4383034978108 -427.238509978209  -61.8419360153836 -109.5430537199713 612.2246280372779  61.16301038569343 863.7603798445903 500.0713238722019  -22.89015993378014 -978.8125254385775 -545.6911140537594  21.11927015083987 -1407.252007477069 2.631735217036509  47.87686506817681 377.3040493512148 -704.847516637
[...]
<PointData  Scalars="Pressure"> 
<DataArray  type="Float64"  Name="Pressure"  format="ascii">-9.4424775316150275e-03  -9.1295007514708235e-03  -9.7912518099862976e-03  -1.0270033794328391e-02  -1.1905542847141518e-02  -1.2547493857765588e-02  -1.2853427243880876e-02  -1.2554123418036576e-02  -1.2115060529721833e-02  -1.0761296370410615e-02  -1.0144156935294987e-02  -8.9571023331506631e-03  -8.9073267183785755e-03  -1.1275517154497655e-02  -9.4158881242773253e-03  -1.0700609941832402e-02  -1.0748328027299853e-02  -9.0360084412093242e-03  -8.1734016519720409e-03  -9.9399395258496365e-03  -6.0903246638089204e-03  -6.7517586855194867e-03  -2.8048086476780555e-03  -4.1158128154820846e-03  8.6040975154738029e-05  -1.8955537234119214e-03  1.5566807313899921e-03  -9.9008986361588777e-04  6.7258304199763110e-04  -1.8558736456682039e-03  -8.9048235009090522e-04  -5.1232138657963762e-03  -1.0027528207715623e-02  -6.8799426293416873e-03  -7.8551386555415752e-03  -5.0570606204589598e-03  -6.4864711035020270e-03  -6.4404065541011791e-03  -2.7901802935656186e-03  -1.1282024594711070e-02  -7.2958363992822895e-03  -1.0755827472764474e-02  -8.1896146075921047e-03  -9.9438110374061670e-03  -7.1144601432759288e-03  1.5480851965090805e-07  9.1958872278090147e-04  -5.6910507981095407e-03  -7.6014445825158755e-03  -3.2303588590753968e-03  -3.2516920844295190e-03  1.4179326744672915e-04  -4.9604795253191847e-04  1.7913373913122986e-03  -2.6382869324451081e-04  1.2694630762467244e-03  -1.4506761983455138e-03  2.4918951524182378e-03  -1.8665262833339055e-03  -2.7339334815187075e-04  -9.7890767287217443e-04  -4.7602198649516203e-03  -4.8027019903846948e-03  -8.8641581778625637e-03  -9.0696464442767393e-03  -8.6759784872986138e-03  -5.7291962967804142e-03  -1.2264582462269521e-02  -1.0079370143309193e-02  -1.1718623223481861e-02  -1.1879554383472416e-02  -6.7713025010905032e-03  -6.9518604811889990e-03  -4.6591632546183767e-03  -1.0886366851246373e-02  -8.7046780315018311e-03  -1.2517638898907512e-02  -3.9098921927605661e-03  -1.0573586657643323e-02  -3.3319038518809922e-03  -1.0492211624948735e-02  -1.0711707990257554e-02  -8.1467713228481377e-03  -7.4511982853024388e-03  -4.5427160239480775e-03  -3.0600467253495329e-03  1.6139073393559161e-03  -9.9310755676073580e-03  -1.1329730299343947e-02  -4.0752658329048395e-03  -7.5628038229639085e-04  -7.4472759908156411e-03  -5.1441846082955105e-04  -4.1489467481934479e-03  -7.9908108257157121e-03  -3.0520057147739177e-04  -1.5311311664829570e-03  -4.7538184682903110e-03  -9.4211060561438537e-03  -6.1652066067378487e-03  -3.9188708434481747e-03  -2.1914383876214163e-03  -5.8710069932208066e-03  -8.6684937079475749e-03  1.4487872964715053e-03  -9.2913914432368582e-03  -1.1956652931768663e-03  -9.1948832279651390e-03  -8.5192427723269487e-03  -1.1775530778343039e-02  -1.1722351334655469e-02  -1.2491961156724331e-02  -7.0321124342583542e-03  -7.0417293810038474e-03  1.2998738862742667e-03  -2.7451310276073171e-03  -6.7603096058096857e-05  -1.0557840311251532e-02  -8.7068234405212018e-03  2.1679994423116607e-03  -3.8006847159571052e-03  -1.1331767943331879e-02  -3.5479483057024967e-03  -4.6649331068752695e-03  -6.1559309996833365e-03  1.1575436109160055e-03  -1.5691581059970275e-03  -4.3495141194947844e-03  -9.3080108889685934e-03  -1.0090645593234734e-02  2.1741571983193101e-03  2.7319122259401511e-03  -5.1312788938807034e-03  -1.1266247926979252e-02  -8.7453005826127802e-03  -7.3393278334224097e-03  -3.7364179597423955e-03  -6.7561894519354727e-03  -1.1731386864351425e-02  -2.6163793850319723e-03  -6.1640377659768521e-03  1.6947605249583817e-03  -5.2955418436978052e-03  -8.2235217706024578e-03  -8.8397626931657619e-03  -8.1941536154790297e-03  -1.1236044303403943e-02  -4.6304118538731723e-04  1.1624741916912824e-03  -8.4973870039925774e-03  -5.8824432265714771e-03  -6.4295721391976471e-03  -9.7490235774023524e-03  1.1727304389904271e-04  -8.5853430090051773e-03  2.4939254384304223e-03  -9.7292451551047650e-03  -9.1104892627165753e-03  -1.7648775675238872e-03  -3.4590279688757344e-03  -2.4214896245973038e-03  -1.1403593506239633e-03  -4.6067710272395031e-03  -6.0098425875049991e-04  -2.3221960825283621e-03  -4.1798464269769183e-03  -5.1645745513462307e-03  3.5520164283425092e-04  -3.2958081402476897e-03  -4.1863166916963953e-03  -2.2099634010104125e-03  -1.2715955914839492e-03  1.3745422986967933e-03  -4.2619340109737646e-03  -9.3815868874110226e-04  -4.4023860604053399e-03  -1.1375130033699540e-03  -4.5507531719815950e-03  -5.7936365684511538e-03  -3.6211044161073343e-03  1.6693962793401928e-03  -2.9475033214230203e-03  -8.7927424281156218e-04  -4.8133736692671228e-03  -5.2931209309854191e-03  -2.1676591150209526e-03  -5.3468377706914231e-03  -6.4922262552635900e-03  -1.2559682371585657e-03  -5.6503846255045280e-03  -4.1689493205566289e-03  1.2296245520950347e-03  1.6346324131933431e-03  -1.2564896837979679e-05  -2.0452335380562632e-03  1.1760209431965745e-04  2.1505084978722137e-03  -4.8271069228840082e-03  -4.6611280661595922e-03  -4.6261806977484268e-04  -2.6193379557216292e-03  </DataArray> 
</PointData> 
</Piece>
</UnstructuredGrid>
</VTKFile>