<?xml version="1.0"?>
<VTKFile type="UnstructuredGrid"  version="0.1"  >
<UnstructuredGrid>
<Piece  NumberOfPoints="201" NumberOfCells="657">
<Points>
<DataArray  type="Float64"  NumberOfComponents="3"  format="ascii">-44.85182340765677 2.708566989670619 191.8781459153287  -25.37239544447431 -3.301350880491611 -194.3095139834469  6852.157242006881 -69.40443285481376 -245.2273268643544  11441.40435803043 -93.32655825204797 -348.4336565510453  13772.0425067951 -102.4766916658356 -440.5075899543272  14895.6977450279 -101.1804668151486 -301.1938562689794  15239.39538053756 -102.4081847212506 4.868431788501094  14898.42405934253 -105.2545140801363 303.9571971742351  13772.15898141296 -105.952145351923 436.1166454834187  11448.71671728382 -107.25476446151 344.039956347944  6859.090835088088 -50.62399239422157 239.9739948016203  7988.356675031713 -3557.083383162386 -306.3582103222997  8171.045480460484 2708.549326786484 281.7605807852214  14694.15886257262 -2638.709682777081 -152.9627164284517  12150.90882318654 -3131.806832536653 411.9554379677361  13932.03387298196 2570.100389073414 381.8675511171241  13927.98048572822 2569.44840523768 -380.2155844754186  8859.510608562054 3046.834454634035 -320.6220096598217  3370.205950670267 -3392.765144513227 242.8021263631104  12158.26693806345 -2916.842241235326 -402.0904832494688  8633.264172277617 -5666.62069586493 -378.7051894321204  11659.91828629991 -5181.3482586032 -371.3278071636768  8019.612921783949 -7290.362824100336 -345.7187239986575  10682.39783007419 -6619.706514265632 -209.4712899593701  6767.381331347667 -8289.529606477561 -165.4264628200367  9452.624877796425 -7429.409000186586 43.90080692934976  5020.747210362934 -8775.449214161315 77.76818062721519  7474.983037391213 -7841.569054370602 276.9202142269682  2720.605624656203 -8759.689217800562 270.5899200230011  5187.284006208512 -7607.113972170041 366.7771065324511  -181.239579980444 -8121.633795827932 354.9586662866731  11238.96082611169 -6175.087312809243 243.1922486352082  12195.52903484911 2741.501342506349 411.0258367705244  11479.35399984651 5078.138384995127 382.7350857394791  13012.32105172094 4660.08646601919 214.0107099293072  2183.949101867295 -6655.767409200865 316.5171116612507  7664.781991901049 -5731.18782751342 355.0997028343605  8758.567347946555 5258.11190315786 373.9399849512748  7673.755880175822 7126.739066502912 350.1487088287697  14719.8768421791 -2577.921620898247 150.1231859374542  12969.30863572525 -5144.016397406391 12.51510933311919  14026.56252588886 -2744.946340695764 -359.8276237731668  3289.621281219342 3356.760897371999 -231.8086090897394  12136.04751877793 2692.947242948055 -412.6901037702164  11417.66802681959 5068.709208528128 -389.5400582474499  3415.69653694622 -8581.463796940556 -294.7027595168574  -2378.203157365093 -8802.393055738059 257.3552742918379  4049.219752672393 -6118.831431752941 -311.1149154419152  12933.40384981558 4727.601979902278 -226.7236378876599  9847.417718517965 6834.215289017997 -246.6137585372443  7534.063538897331 7017.332826781308 -363.8864021276932  5581.318670902062 8305.757263202495 -239.1532362673789  2588.877934434756 8191.500137014968 -340.875970496398  632.9038921117332 8973.976303117413 -214.7760630751005  -2767.035679458907 8401.060110417082 -328.3997513313157  -4255.080130085438 8827.651136416645 -173.4542787324975  -7533.523319128511 7795.097355005695 -301.9246654499651  -901.7670434154442 9194.601044890049 16.76936708236248  -5515.482637868619 -7670.998242053557 350.4600935594718  -7043.709889209636 -8030.473024713416 223.1676525495363  -8486.996478019244 7884.760256307753 -90.52154288841052  -11215.67340846093 6342.141007833966 -235.9731647800735  -11697.77569576265 6248.665379004448 19.78366972300386  -13721.68746509685 4203.629943509646 -162.0418069590407  -13864.87007762402 3997.709231697781 146.795159133748  -12868.05056288677 4152.77039302883 -378.3938673986807  -11582.08506593061 5914.121932211135 289.1328070810628  -14617.25562757832 1847.979618034602 -292.1729538982629  -13455.84758162037 3429.342355460793 371.6103392626603  -13558.89868965631 1285.284816578103 -432.8359550733784  -14341.98075051993 -1203.54585347643 -383.6028581129476  -10729.5153925145 5287.136648214073 396.4144774144891  -2995.083889340703 -4904.751204649638 255.6661984004446  -9891.553185808389 -6410.60850891086 343.2095032057646  -12725.22441815625 -1779.768629428278 -419.4363771789049  -12727.82233916922 -4039.680686091194 -381.1499087562069  -14822.67925721743 1210.128547912297 259.7592373340439  -6094.095894153986 6990.031624149691 -373.3139941736708  -12273.51932587958 2409.964368399788 407.2468935187464  3948.899654447074 7074.376110332168 356.7003062023461  -14212.52462131651 -3170.867367493167 -175.9067177286398  -11254.81274379628 854.6501376693199 -350.971949588379  -8804.369503487345 4427.367833141315 341.2908273198225  -10124.76716029177 -4659.497906619539 -391.0214334460185  -9685.33403394428 -6420.686196142421 -352.8357966217944  -8204.953065572254 7347.5295894347 340.7067926119624  -3979.894231189567 -8909.022849875555 55.25961414058215  -9785.247737121175 831.0230680392713 293.0957992613325  -12704.21753346813 -924.1421232164715 411.6419468203194  -6112.266922397035 -6849.710926122794 -370.9507385805092  -5598.083734709116 -8106.335720940818 -310.2406977782069  -5972.626370768527 -4818.424681784893 -307.1094657075623  7948.811882677678 7896.331345357833 -23.96411503985988  -10650.02211098565 -6620.893955904123 161.2095912619184  -12965.28026859843 -4558.062835887851 286.3440606391132  2960.012317975527 8383.4291656444 319.8660042941269  -1251.165473604975 7957.296260107603 347.940066907977  -489.679510677865 6555.627146080907 321.1544590922106  -5874.199319545842 3109.959680399289 261.7729138433631  -8268.07609717294 -5705.2252385253 378.057710804666  4340.072953312992 6950.946537569836 -351.4716964848778  -8824.982439134048 -7467.721007121951 -190.8165618518349  -1544.771840088182 5847.632298790781 -291.3659431078999  -3689.216158909928 2776.693088817301 -236.0381979048428  -1927.926103433856 8851.326803539068 252.634465020464  -4776.050684254306 -1954.331858632687 221.8125154803853  -1229.465861093729 -8206.50386513748 -348.5414292930412  -9155.631760503467 -2806.0963185707 321.6824444485269  -12061.90317705783 -4007.006087051204 398.5522503526212  -14096.80220406079 -1819.145306058623 395.3356097238006  -14631.82762063498 -2306.537637275621 148.0700582980756  -15101.46387473011 -212.4927367122142 -98.06792838258961  -7589.539511802362 4911.978866315221 -337.1674305887738  -10371.23227535768 5060.909938684094 -396.1299281225167  -1387.719013923837 -8902.974950129346 -251.5060787022945  -693.2548917904978 7663.90580453761 -355.3589977417305  6354.982129514792 8182.099150901216 212.5599874690319  13993.31105714136 -2631.804196296288 367.5710152909666  1064.071303048809 -3562.579804375641 -225.0090847156803  2505.158236945088 -9073.48479926347 -129.0196158334018  -5686.329561743954 6829.815035869438 358.6042883981141  14689.03198917009 2308.437369633618 -159.245049027717  10095.17777848724 6754.435294190704 227.336295103946  11632.56519160201 6049.576495943217 -12.21024555409359  -11976.92386778029 -5599.285712705322 -226.7214856496057  -5317.919667565515 8761.120886460383 62.78074645458547  -8792.195517553775 7692.795451221121 162.5877689699903  -1043.833441133145 -6752.957802871379 -317.5404123321761  -5220.016756777894 -1392.591543238426 -229.2682222823087  -9878.862057679151 -2005.018608300042 -323.6366311868299  3593.65251678214 8926.135467316806 -41.86874579586369  417.1582280254452 -9198.45465681068 93.68962240022528  9355.395735649732 -6374.179003195424 377.4033111701944  14689.45696415882 2339.320216103278 145.1705552589538  8803.659164371915 -3150.426309310701 325.5750115354507  -13028.48534012194 -4963.776306820168 25.94701830739166  -3375.112865365555 -7030.711517771828 337.574167543009  9009.975066453229 5102.573294609258 -375.3812938055615  -14058.55092297537 899.7419459875971 420.2255576908631  4000.857664995821 -7654.908693061089 -356.892315980093  4919.769244868657 5449.056096411315 303.0744342885462  2193.501908115446 8967.391971593519 168.8141731916461  -10333.24316917727 6274.805228761737 -359.0222256972145  13136.10676731294 -4654.03982736912 -239.2202192342303  -365.350737091399 3282.291101650177 214.2795953740286  12387.54058952921 -4689.991740810467 358.9436862073841  -14762.64311803063 2392.298831130214 -26.64045649724794  -8049.37261589806 -7918.577326248042 4.303194448017732  -5002.520263841538 -8666.766789621102 -141.7178354078924  13756.65236231134 4068.365529107972 -8.563986662107389  -4562.292594536383 5657.765317643471 307.6400800333647  5635.021738337898 5078.887384873926 -309.5781984139438  -7356.712634271396 981.2790690240531 -244.178204130221  -5998.746537751545 8348.212143893556 252.9740986502563  13364.39129408037 -4353.314479408489 251.3540072215847  -1085.846846781856 -9183.740477750927 -83.99658329456543  -11751.09297887543 2919.585485062272 -382.8772308536232  -8897.512177267279 2682.652684603138 -308.3462992476542  -4862.901104187047 7995.644266056339 346.6059582463467  -10886.93174507072 -6573.29560356505 -49.67464690541031  -20.60987087019314 0.2058024548962986 0.04225225535060748  -6558.036120090079 -4514.494280374764 5.59372140152021  9863.587713117546 1712.230531787108 -4.277595375151494  -4112.729477051649 4907.809777259005 68.4171381078349  7506.417996753078 -3505.789814307851 69.4605976816603  -5354.013007346661 599.7876172327748 -99.04656477162101  -10109.24052183676 986.2056502054546 -0.2497812405076647  1975.633986599513 5466.103316375262 -60.81084053118691  7198.17686919909 -2813.486223781375 -84.4256297038105  -5873.837897076703 -517.9461036086607 103.6017502759407  5348.752023588489 4105.064990927453 101.7418074253188  -2006.024067713575 -4738.942154138234 -110.4237161671563  1690.148121925984 -6452.299387343799 0.7975763462665635  4499.319831167927 1891.519706109149 -112.28633537447
[...]
<PointData  Vectors="Coriolis"> 
<DataArray  type="Float64"  Name="Coriolis"  NumberOfComponents="3" format="ascii">1.6883355037874276e-09 1.1919803807627284e-08 0.0000000000000000e+00  -5.3405043164513649e-11 8.4425185031830409e-09 0.0000000000000000e+00  -2.1515067513560214e-08 -1.0075097944391028e-06 0.0000000000000000e+00  -3.1277084751688162e-08 -1.5371146347262268e-06 0.0000000000000000e+00  -3.5314028624893908e-08 -1.6591751922577351e-06 0.0000000000000000e+00  -3.4835475486837450e-08 -1.6729323112338170e-06 0.0000000000000000e+00  -3.4190764425757838e-08 -1.6720895234298312e-06 0.0000000000000000e+00  -3.4499150099397396e-08 -1.6733659402599235e-06 0.0000000000000000e+00  -3.5494983873462816e-08 -1.6592692859679437e-06 0.0000000000000000e+00  -3.4340237790035645e-08 -1.5405629666579598e-06 0.0000000000000000e+00  -1.8602625858850027e-08 -1.0085024171217292e-06 0.0000000000000000e+00  -9.0272123031006566e-08 -1.1086889019167492e-06 0.0000000000000000e+00  4.0524768828377655e-08 -1.1645423531788030e-06 0.0000000000000000e+00  -4.3264907829359589e-08 -1.6528455868331084e-06 0.0000000000000000e+00  -5.9247561542046451e-08 -1.5216766612739708e-06 0.0000000000000000e+00  -1.3753196529244505e-08 -1.6045170149210409e-06 0.0000000000000000e+00  -1.2973244229016401e-08 -1.6135203539775642e-06 0.0000000000000000e+00  3.7659939504620591e-08 -1.2283227602631438e-06 0.0000000000000000e+00  -1.0353911759803803e-07 -5.0426687490564656e-07 0.0000000000000000e+00  -5.9554818705866027e-08 -1.5301392962271797e-06 0.0000000000000000e+00  -8.1177221395664952e-08 -1.1174757246426423e-06 0.0000000000000000e+00  -4.9668456077017217e-08 -1.3957634124325544e-06 0.0000000000000000e+00  -4.0215235073304923e-08 -9.8427360917810236e-07 0.0000000000000000e+00  -2.8824308602086679e-08 -1.2405493077710347e-06 0.0000000000000000e+00  -6.4880765611434177e-09 -8.1583735532638505e-07 0.0000000000000000e+00  -1.7088399872340457e-08 -1.1010983316483342e-06 0.0000000000000000e+00  6.7505267065947843e-09 -6.1020962687566147e-07 0.0000000000000000e+00  -2.2365865893199657e-08 -9.0538284491133542e-07 0.0000000000000000e+00  -4.7580309707698917e-09 -3.4436220366754713e-07 0.0000000000000000e+00  -5.4931245917173932e-08 -6.7110927463920367e-07 0.0000000000000000e+00  -3.9166763958456588e-08 1.1624285145788935e-08 0.0000000000000000e+00  -3.3209916323363765e-08 -1.3076572831325267e-06 0.0000000000000000e+00  3.2404800491560895e-10 -1.5392794722359045e-06 0.0000000000000000e+00  -2.4001875230322306e-09 -1.3795698884972934e-06 0.0000000000000000e+00  -1.3497151006477346e-08 -1.4725949281588531e-06 0.0000000000000000e+00  -1.0308532781797934e-07 -3.1064935625350207e-07 0.0000000000000000e+00  -9.1168017795068212e-08 -1.0222028398630789e-06 0.0000000000000000e+00  3.6121173982357619e-08 -1.1449652104580230e-06 0.0000000000000000e+00  1.0681589773462826e-09 -9.4770903900899148e-07 0.0000000000000000e+00  -4.3089151695318138e-08 -1.6537684241200732e-06 0.0000000000000000e+00  -3.3362875602980774e-08 -1.4694570045429566e-06 0.0000000000000000e+00  -4.6585412294874359e-08 -1.6390516964342863e-06 0.0000000000000000e+00  8.9226782048991154e-08 -4.7732074204791118e-07 0.0000000000000000e+00  1.2146288762355992e-09 -1.5415112670802673e-06 0.0000000000000000e+00  6.2584168596219090e-10 -1.3728141035571578e-06 0.0000000000000000e+00  -1.4398190031255925e-08 -4.3250027471895471e-07 0.0000000000000000e+00  1.3795101399641222e-08 2.8564590046523954e-07 0.0000000000000000e+00  -1.0726110753688493e-07 -5.7210600843007312e-07 0.0000000000000000e+00  -1.3212810427595125e-08 -1.4639126421658177e-06 0.0000000000000000e+00  -2.1945146030610092e-08 -1.1580797232686662e-06 0.0000000000000000e+00  6.8794105931730370e-09 -9.4346966112369847e-07 0.0000000000000000e+00  -2.7026664199007800e-08 -6.7083356398864276e-07 0.0000000000000000e+00  1.2759265186973802e-08 -3.1454682945622503e-07 0.0000000000000000e+00  -2.3544624218461893e-08 -5.4348629986889538e-08 0.0000000000000000e+00  2.4207134052951602e-08 3.7606721990518380e-07 0.0000000000000000e+00  -4.3860585875317660e-09 5.4392040061068755e-07 0.0000000000000000e+00  3.3738137175507134e-08 9.3215825919701874e-07 0.0000000000000000e+00  -3.1413865197149426e-08 1.3762577728829280e-07 0.0000000000000000e+00  -1.5316044417970526e-08 6.9513177991441971e-07 0.0000000000000000e+00  2.1812697739718539e-08 8.3760602518696598e-07 0.0000000000000000e+00  2.1352151097967232e-08 1.0149672486330498e-06 0.0000000000000000e+00  5.1505616484210449e-08 1.3094307559864804e-06 0.0000000000000000e+00  4.8663697840355116e-08 1.3399843243216019e-06 0.0000000000000000e+00  5.5922047712630598e-08 1.5454644495425409e-06 0.0000000000000000e+00  5.5807289030231798e-08 1.5520766479836435e-06 0.0000000000000000e+00  6.5867931371779561e-08 1.5148017783325705e-06 0.0000000000000000e+00  5.6463157249638557e-08 1.3543189230746899e-06 0.0000000000000000e+00  4.6600974431884894e-08 1.6322155079858287e-06 0.0000000000000000e+00  6.1154124096812312e-08 1.5636815684656610e-06 0.0000000000000000e+00  4.3895837356409794e-08 1.6262561796250167e-06 0.0000000000000000e+00  1.5378275072452252e-08 1.6374735969049612e-06 0.0000000000000000e+00  7.8470346089241907e-08 1.3403376056706543e-06 0.0000000000000000e+00  -1.0117232235864135e-07 4.3564885841960599e-07 0.0000000000000000e+00  5.3972445443264009e-10 1.1844875518913653e-06 0.0000000000000000e+00  5.6113377003512855e-10 1.5875903865748081e-06 0.0000000000000000e+00  -6.4181805500371359e-09 1.5074371510540834e-06 0.0000000000000000e+00  4.0812689344450196e-08 1.6385427276871819e-06 0.0000000000000000e+00  7.7712180987761958e-08 8.0883278008052022e-07 0.0000000000000000e+00  6.3834415976516807e-08 1.5457648811182480e-06 0.0000000000000000e+00  5.3609378550002840e-08 -5.1405444130571144e-07 0.0000000000000000e+00  2.6596366482664407e-09 1.5844817563205996e-06 0.0000000000000000e+00  3.7545125644688760e-08 1.5019676846958541e-06 0.0000000000000000e+00  1.0424891649723184e-07 1.1902571449205446e-06 0.0000000000000000e+00  -3.2945683199034741e-08 1.2956804545902227e-06 0.0000000000000000e+00  -5.8299077551847857e-10 1.1666025597148497e-06 0.0000000000000000e+00  4.9030828770484226e-08 1.0144223911691139e-06 0.0000000000000000e+00  3.5185931692265121e-08 4.7284703021676963e-07 0.0000000000000000e+00  4.1138370395993832e-08 1.3621066052197305e-06 0.0000000000000000e+00  1.0230678365713315e-08 1.6064071208955002e-06 0.0000000000000000e+00  -3.9718084556915539e-08 7.8908754242558092e-07 0.0000000000000000e+00  6.4714032799653903e-09 6.8355772453781845e-07 0.0000000000000000e+00  -7.8809110764304936e-08 8.3779293850124768e-07 0.0000000000000000e+00  -4.1021369003486661e-08 -9.4128799407604880e-07 0.0000000000000000e+00  2.0008064457771509e-08 1.2290845371682285e-06 0.0000000000000000e+00  1.8345182524112648e-09 1.4961166163874643e-06 0.0000000000000000e+00  -1.3810294220757438e-09 -3.5809572252508520e-07 0.0000000000000000e+00  4.5605438236340613e-08 1.8650316003599147e-07 0.0000000000000000e+00  9.6306385611096124e-08 8.2899299229089410e-08 0.0000000000000000e+00  9.9562564227029019e-08 8.5477365089077646e-07 0.0000000000000000e+00  -4.2802028893616197e-08 1.0697194684936749e-06 0.0000000000000000e+00  5.5760989874726834e-08 -5.6572934813957344e-07 0.0000000000000000e+00  2.3731888092603377e-08 1.0308171832035282e-06 0.0000000000000000e+00  1.1436066892569016e-07 2.3040225841815950e-07 0.0000000000000000e+00  9.5005103118533724e-08 5.5107258023007317e-07 0.0000000000000000e+00  -5.1115335619384620e-09 2.6652707973449920e-07 0.0000000000000000e+00  -5.4339267058256091e-08 7.1264879512079181e-07 0.0000000000000000e+00  -3.1902365427076425e-08 1.4550260121581845e-07 0.0000000000000000e+00  -4.0243428402996455e-08 1.2569443867315549e-06 0.0000000000000000e+00  -1.4511824007958033e-08 1.4807432360340298e-06 0.0000000000000000e+00  7.3156918840501837e-09 1.6218046482299669e-06 0.0000000000000000e+00  6.0579023276079287e-09 1.6134970873920090e-06 0.0000000000000000e+00  2.6962162020791445e-08 1.6450378140767982e-06 0.0000000000000000e+00  1.0733132088607463e-07 1.0426914377587801e-06 0.0000000000000000e+00  8.4673605321038395e-08 1.3185818372857536e-06 0.0000000000000000e+00  1.2370361364434012e-08 1.6106464042446532e-07 0.0000000000000000e+00  5.7779694435971365e-08 1.1236081210213971e-07 0.0000000000000000e+00  -3.1331645054384685e-08 -7.6086047476491382e-07 0.0000000000000000e+00  -4.6971949136105118e-08 -1.6392652965240970e-06 0.0000000000000000e+00  -1.0508898762169440e-07 -1.5687373823323204e-07 0.0000000000000000e+00  1.5675381650015581e-08 -3.1315988753567538e-07 0.0000000000000000e+00  8.8210855370803071e-08 7.7038493384879652e-07 0.0000000000000000e+00  -1.6892195906864558e-08 -1.6272198467318253e-06 0.0000000000000000e+00  -2.2644265016362575e-08 -1.1819454689215585e-06 0.0000000000000000e+00  -2.2511285117540781e-08 -1.3220970896024155e-06 0.0000000000000000e+00  9.4370417956695197e-09 1.3807706505574585e-06 0.0000000000000000e+00  -3.5809016382667234e-09 6.6304618582386043e-07 0.0000000000000000e+00  2.8116277977668126e-08 1.0497292482147052e-06 0.0000000000000000e+00  -9.1701499890961643e-08 1.3563194576169358e-07 0.0000000000000000e+00  -3.3670876182439109e-08 7.7176073182898927e-07 0.0000000000000000e+00  -2.2147676967070820e-08 1.3598133566253289e-06 0.0000000000000000e+00  -4.1884251881400671e-08 -4.2088392573135815e-07 0.0000000000000000e+00  2.5495043416276385e-08 -6.0026909281326468e-08 0.0000000000000000e+00  -5.6040352642258441e-08 -1.1522325536918154e-06 0.0000000000000000e+00  -1.6903341014620419e-08 -1.6240155889573213e-06 0.0000000000000000e+00  -8.2339244629611837e-08 -1.2090791307804635e-06 0.0000000000000000e+00  1.0167823544266834e-08 1.4780017318884847e-06 0.0000000000000000e+00  -6.5179412820433985e-08 4.4866195806323970e-07 0.0000000000000000e+00  3.4423620545052661e-08 -1.1793865475300083e-06 0.0000000000000000e+00  3.7506332090142211e-08 1.6386333592577378e-06 0.0000000000000000e+00  -6.1149952820696945e-08 -5.2819051371980201e-07 0.0000000000000000e+00  8.4191312241932577e-08 -6.8078975495563983e-07 0.0000000000000000e+00  -3.2678552698922593e-08 -2.4788623147716184e-07 0.0000000000000000e+00  6.3555425097818643e-08 1.2593763638874782e-06 0.0000000000000000e+00  -3.8653698846717533e-08 -1.5064368053090360e-06 0.0000000000000000e+00  9.8752596727008777e-08 6.0158999646125943e-08 0.0000000000000000e+00  -5.0093435863091574e-08 -1.4648871698866617e-06 0.0000000000000000e+00  5.0368049352116444e-08 1.6180307035791191e-06 0.0000000000000000e+00  3.1354615685665777e-08 9.3662333911004379e-07 0.0000000000000000e+00  3.0935490002963275e-08 5.9581169901946583e-07 0.0000000000000000e+00  -1.5606005457503054e-08 -1.5309749992678205e-06 0.0000000000000000e+00  1.1407721117757914e-07 6.5217725581458825e-07 0.0000000000000000e+00  7.7788634270328903e-08 -7.8578907892518607e-07 0.0000000000000000e+00  4.7481690445685002e-08 1.0708258086453517e-06 0.0000000000000000e+00  1.7201289826828656e-08 7.5157633290413646e-07 0.0000000000000000e+00  -4.0900523753546662e-08 -1.5309877522026142e-06 0.0000000000000000e+00  2.9722807313692163e-08 1.2130686101931803e-07 0.0000000000000000e+00  7.5716084417764870e-08 1.5129555635795315e-06 0.0000000000000000e+00  8.6362378815944347e-08 1.2324658164473915e-06 0.0000000000000000e+00  4.1689086252975156e-08 6.3663112941972899e-07 0.0000000000000000e+00  2.2372543014396951e-08 1.2478121967263080e-06 0.0000000000000000e+00  4.6165363817967112e-10 7.4885789088694556e-09 0.0000000000000000e+00  -7.4084527105780051e-08 9.1933473081155510e-07 0.0000000000000000e+00  1.1098099196467068e-08 -1.3767723314233115e-06 0.0000000000000000e+00  1.1842568367251705e-07 6.0229922533957284e-07 0.0000000000000000e+00  -9.4879142060865403e-08 -1.0606041651007881e-06 0.0000000000000000e+00  3.4385038783825581e-08 8.0198536924327536e-07 0.0000000000000000e+00  4.5694288003326786e-08 1.4007849035492725e-06 0.0000000000000000e+00  1.0854777276560246e-07 -2.7378785734586724e-07 0.0000000000000000e+00  -8.4494181096985097e-08 -1.0356785118357432e-06 0.0000000000000000e+00  -3.8470245078857039e-09 8.7253165302989016e-07 0.0000000000000000e+00  8.1694816874279098e-08 -7.7092600000473267e-07 0.0000000000000000e+00  -1.0445246660647188e-07 2.8992576222324028e-07 0.0000000000000000e+00  -1.0712775114475278e-07 -2.4872361324779022e-07 0.0000000000000000e+00  4.7747638536128189e-08 -6.6999657736509758e-07 0.0000000000000000e+00  -1.0687754366348596e-07 2.3669794568042541e-07 0.0000000000000000e+00  -3.4971701765499684e-08 -6.1545222297203604e-07 0.0000000000000000e+00  1.1192771271322236e-07 9.5486690064873084e-07 0.0000000000000000e+00  -2.7962701225657701e-08 1.3665842505426250e-06 0.0000000000000000e+00  -2.4872116283112633e-08 -1.4313343991099768e-06 0.0000000000000000e+00  1.0355854467903319e-07 2.4864081066635495e-07 0.0000000000000000e+00  8.2075624922979297e-08 -2.5312917913435523e-07 0.0000000000000000e+00  4.6787072093704400e-08 -1.1661476722538402e-06 0.0000000000000000e+00  4.3882878144070098e-08 -1.0661122803352272e-06 0.0000000000000000e+00  8.5346350572828610e-08 1.3360545085753253e-06 0.0000000000000000e+00  -5.9169316768135779e-08 -1.4878487532375009e-06 0.0000000000000000e+00  1.1809183866975848e-07 3.9171396138893294e-07 0.0000000000000000e+00  -1.7925709922138969e-08 1.4711454003042722e-06 0.0000000000000000e+00  -2.3699518427345968e-08 -1.5180631573022188e-06 0.0000000000000000e+00  -8.9541000051405034e-08 -1.0541048382800081e-06 0.0000000000000000e+00  7.3382557600080250e-08 1.4320372408813833e-06 0.0000000000000000e+00  -8.5350501599523234e-08 -4.3509663507020436e-07 0.0000000000000000e+00  -6.9751662070250087e-08 5.0671385607322867e-07 0.0000000000000000e+00  -6.2764047685345704e-08 4.7625338786507723e-07 0.0000000000000000e+00  -1.0137041053427829e-07 -6.0601977202766308e-07 0.0000000000000000e+00  9.2150721681838278e-08 1.1875395347201784e-06 0.0000000000000000e+00  -1.0487050127882113e-07 -5.3299361436716119e-07 0.0000000000000000e+00  8.1046983070280364e-08 3.7302219087447591e-07 0.0000000000000000e+00  -5.9184641272175586e-08 9.9552751157255128e-07 0.0000000000000000e+00  2.0592010842109108e-08 -1.3956773629182043e-06 0.0000000000000000e+00  1.0189482856349156e-07 -2.1867529171043569e-07 0.0000000000000000e+00  5.0234096048590226e-08 -7.1418813093185960e-07 0.0000000000000000e+00  </DataArray> 
</PointData> 
</Piece>
</UnstructuredGrid>
</VTKFile>