<?xml version="1.0"?>
<VTKFile type="UnstructuredGrid"  version="0.1"  >
<UnstructuredGrid>
<Piece  NumberOfPoints="201" NumberOfCells="657">
<Points>
<DataArray  type="Float64"  NumberOfComponents="3"  format="ascii">-13.36071805067865 1.873287327310904 302.9736358268003  -18.77497205143076 -1.799658785514066 -306.1315919032822  3486.347096064496 2.475291549377554 -294.5059306715544  6002.511497764918 -0.7224232347075584 -299.6144877498323  7435.809933238023 -3.528258669032841 -273.7459252653574  8150.63633923329 -2.3552657790085 -142.2978321141434  8370.304740940588 -1.065449524775019 52.9395561103212  8151.294638350077 -1.806089050509225 246.9395610622457  7435.405681136038 -2.992185054159681 374.824111913326  6007.121349998455 0.8193707720941754 389.9584664223023  3488.371301986939 2.073715823699768 351.6637744434251  4228.547462251256 -673.0666384235742 -285.7024743545957  4255.775111250774 522.003033337144 355.2844011741115  8081.832879086864 -793.2749225602128 -41.68070611457541  6589.054541078139 -750.341500216824 366.6020436261964  7644.533885164457 767.0767500528765 295.8060730427021  7631.717584012546 767.7785277559313 -196.5426965532416  4663.139895113002 615.8840291703315 -288.2517726199923  1736.860966074316 -554.0047066206901 314.6245938232303  6569.820719099895 -691.9736799867101 -275.2248952887285  4795.193397032926 -1220.772938866007 -246.341944829027  6508.179773580014 -1336.546177077091 -192.0910230076173  4639.994106270623 -1716.396494180602 -159.3044049831867  6113.056325351583 -1761.058845820317 -68.09662693163482  4018.463072182237 -1994.277690528648 -49.2990337048231  5493.555878883149 -1933.130959707943 63.41684103295552  3028.463017453554 -2053.85454372631 58.584553407983  4385.412172657056 -1880.339770998454 174.8689489631381  1641.512111380175 -1926.286160632129 143.069922999622  3016.040226029508 -1616.604467182397 241.7365105461683  -116.0378135837194 -1661.422075810069 202.4034025656299  6383.485458810356 -1656.43780021772 186.6688823823048  6582.896039275442 693.1763109982228 372.6547817554624  6416.705324344579 1337.16718601107 291.862760050753  7275.008272290483 1382.445421193192 176.6529509667912  1212.854997788804 -1237.553263719443 272.0312714352739  4241.804850587973 -1173.199697732618 315.5846288366654  4833.047886565212 1153.854865066463 326.8780346085652  4448.590617308702 1668.474455209648 239.7537501909422  8097.042863763229 -774.7098730917181 144.6695647149995  7274.945442807944 -1487.624481156298 59.35282977871431  7679.663026390057 -770.6477303106584 -188.2310864850324  1712.06343121615 558.1702762653815 -285.567255040516  6541.006523509846 669.2175293133068 -278.5452499977029  6373.633638784501 1328.270322524676 -203.5652841499202  2047.357166779449 -1880.892385417183 -130.4028695574263  -1445.114240880155 -1943.065777725669 109.9236345243877  2216.499856127599 -1137.920084297272 -252.9501127201314  7237.852876114309 1393.263256098661 -82.14224965251776  5676.658762208144 1800.821125483768 -91.2622516106788  4341.91216967713 1614.545034762765 -184.2235503214033  3345.133250665507 1945.726700544068 -92.47172329910823  1560.061786141165 1739.70414458969 -174.9762772327583  427.1613617078893 1996.947995447029 -96.00643759232565  -1604.837726639875 1792.4064424203 -187.4407127387059  -2519.226877140697 2024.922113201796 -99.148288316548  -4371.448201677154 1845.065149144796 -190.021038108446  -500.056451009139 2077.64083290315 2.379462983414125  -3218.923831895572 -1689.246072219846 180.8096612714463  -4160.583306361903 -1953.903984722167 81.85753258088025  -4943.718483405533 1979.704223131271 -81.24954479868603  -6363.084666136211 1685.728322115781 -175.3374557497954  -6634.207460342879 1720.967716359922 -34.2762191004773  -7632.296503271324 1228.13611020772 -146.1653020345464  -7705.398906302936 1173.849940371797 37.7968116272752  -7115.194786299418 1106.694828456233 -296.1538668228124  -6532.002979722907 1572.997201042951 120.8183564791231  -8042.824633926348 526.1349638412325 -234.4954937426206  -7410.838407895801 935.00174709919 196.4115521612007  -7357.042032547767 313.9895523729656 -372.4697206266579  -7858.683641568284 -373.9192354485369 -305.2424603554447  -5951.184669264374 1252.680211670694 228.4948956267934  -1577.321729687837 -857.8354961781315 271.1997715223951  -5638.973922394338 -1616.690137825191 160.0700853150699  -6856.483546841951 -462.7794614551929 -384.4988425927575  -7041.740906466931 -1110.504878365336 -300.9677971529512  -8163.882188229487 337.9645020926952 109.2032364142092  -3444.396554478953 1461.474350202647 -274.7830937034939  -6615.490994278495 558.4434695337347 289.4832248409825  2273.211096274536 1417.368293537673 263.2420605951389  -7878.876629646963 -985.2099678818362 -157.0690833972126  -5940.051357657065 173.1169140986614 -390.4284102812011  -4737.626184458549 880.5689497110383 272.2577505749149  -5556.433857950662 -1068.122703321397 -340.9708150229892  -5521.492977575092 -1602.708976869419 -251.0607595672029  -4719.996850756225 1730.734986750762 153.8623283116739  -2422.576538218265 -2070.002990852072 5.132205021351607  -5087.129714951816 155.575342757177 297.1094446148243  -6808.597349017279 -246.7346584751408 293.3243826232588  -3480.207266581248 -1456.508575995278 -277.4133682354261  -3318.325915107436 -1858.990051884631 -187.5251570588996  -3204.476079285799 -900.4516810352907 -323.6504937353166  4696.582109259237 2001.827732622105 24.16178998200331  -6110.918766851059 -1795.222293156143 41.91348031390176  -7230.050940192405 -1314.493905229736 123.8609177437275  1793.502758833605 1824.245001463785 180.1690499190628  -687.014846692653 1617.480020958376 204.5067583060441  -244.4865799710065 1212.01552242276 259.4330557613299  -3044.806654859974 532.5972146281522 288.3069030651143  -4589.733542573739 -1241.398178052385 245.8515659287361  2485.744965615666 1396.449024566392 -229.0192281771946  -5147.869623101896 -1912.372796604145 -136.2850195417753  -819.3503300600079 1038.40053495694 -281.7629490994544  -1892.676355431387 451.1138096339885 -320.6154345577512  -1113.046816542306 1945.63093532996 112.0257970884718  -2428.34864706605 -323.6521458659204 289.3582829630367  -743.5385621824825 -1695.392814007667 -202.0162126056591  -4833.859106713136 -564.8291956764074 291.1741505432822  -6627.756454486345 -1026.539244262482 238.9741796935778  -7727.776179792835 -544.5520707726765 212.7763615458293  -8088.2906659209 -735.6140386016524 38.33891739876506  -8331.168607775191 -96.59250032070838 -110.6593075036103  -4093.866609720381 956.1826481928874 -334.8730016948145  -5717.938359437574 1153.916980023555 -330.5620714404913  -852.7015224089948 -1956.545934865877 -124.4055572976184  -365.8986454065056 1523.424688252538 -229.8765802881172  3789.54209798624 1962.973145629629 134.399486557734  7653.582362127469 -736.7269340984915 299.1488348149828  550.1608001834552 -577.3218277261763 -289.6702998215749  1526.351146215719 -2046.561712672411 -44.39523348436435  -3184.944160368197 1383.573101683512 230.1562733943758  8091.618671571387 745.2360692861608 -44.27009903915578  5809.466763673532 1800.753092978567 165.1350635001489  6618.284048411972 1730.14923183024 39.81502672541317  -6766.843032278842 -1570.022289387127 -177.3670282017508  -3152.102643399697 2062.90780189631 6.007080796908065  -5102.805725321718 1934.365376034344 44.30314316558106  -598.0057395287226 -1255.492160508601 -262.1348169136607  -2663.647847974821 -235.5474725477989 -337.0183689712627  -5183.850405370698 -416.2434664460999 -376.4061723787049  2210.623131877731 2066.752969913256 -1.93605391687781  250.6117139845839 -2065.685306177477 41.92408850024094  5309.520002226338 -1508.341754010234 276.4472726438683  8096.034330915119 754.4896960298852 136.5354481675629  4660.068201579273 -611.172437412765 363.3353953222465  -7312.54382115828 -1472.687547137066 -34.72117078303551  -1923.004055847158 -1381.049928289197 230.6387991395812  4958.728866287922 1123.738222312344 -253.3035593051999  -7667.482931931698 225.2044550489 243.3147297129914  2319.625719392427 -1573.337879991872 -202.385783205848  2685.805036456103 1017.23926612752 305.5228501903605  1371.352974957043 2027.916046771942 87.26445216300067  -5834.842626941345 1547.873939797666 -259.6195081874859  7321.60164365219 -1327.348581736358 -95.09864595027184  -169.7169114926769 531.6112518579325 293.8093887242116  6882.228907020431 -1242.182401341418 282.3449809442453  -8158.176693911984 712.6089266881024 -66.78279215032393  -4743.157990731901 -2011.744357225468 -31.92766294411347  -3017.773759088705 -2040.569535393002 -88.7922249174154  7658.504641783251 1262.952907732257 45.39891879483623  -2456.911476768216 1042.579863379693 263.1561878458093  3045.782863758167 956.3210487344248 -265.5380415821634  -3767.674894936899 159.7779219659076 -357.1514785265967  -3519.454583880065 1940.075724029395 98.80482077377124  7428.740756304038 -1244.476282332713 204.5091293953811  -676.6111701050107 -2066.195417408934 -42.40146190942654  -6317.929959670664 653.4148066697236 -375.2419670325917  -4683.49373968783 503.3447876107578 -366.8718260954267  -2816.223649740484 1733.371821648029 171.8049962058381  -6243.73619635696 -1809.8726925597 -71.73056764430264  -12.57509236659747 -0.4234758645807518 -0.7388328689840276  -3498.695304194163 -851.0576369733246 -19.79657353212509  5134.858000653805 353.6073559993594 38.80065982379887  -2167.464926982238 865.5592116838866 54.42112463432539  3949.640496516586 -643.4974179464232 103.9827914393072  -2709.766240594642 91.47159366806 -167.8996461321461  -5266.461945059096 182.827592458533 -40.84919017623232  1071.186502565002 957.4017549336284 -52.05994817951738  3735.763162917749 -501.4346544062914 -72.95878502449955  -2981.932377641029 -93.83556182221984 118.6630574150317  2809.141938806983 737.4626612865409 138.9473201136321  -1059.346831493175 -815.9466115133924 -128.7925371632095  913.5607388990312 -1174.269018525197 7.619459545035678  2293.381363563583 319.1187723481005 -139.5075036831976  -891.
[...]
<PointData  Vectors="Coriolis"> 
<DataArray  type="Float64"  Name="Coriolis"  NumberOfComponents="3" format="ascii">6.4019083415214289e-08 0.0000000000000000e+00 -6.3795315894277313e-09  -6.3060030443498801e-08 0.0000000000000000e+00 -1.0414674061441710e-08  -6.8693799288981468e-08 0.0000000000000000e+00 8.7312159409513041e-07  -5.5002650624844533e-08 0.0000000000000000e+00 1.3698403342539521e-06  -3.2613602583774196e-08 0.0000000000000000e+00 1.5374675162562827e-06  -2.4015062656317884e-08 0.0000000000000000e+00 1.5785290017896552e-06  -2.4508736704956541e-08 0.0000000000000000e+00 1.5853835857862125e-06  -2.4828270195075684e-08 0.0000000000000000e+00 1.5784329495581354e-06  -1.5110895547414810e-08 0.0000000000000000e+00 1.5372012026090474e-06  1.2012686463381880e-08 0.0000000000000000e+00 1.3726496408540772e-06  4.0542064035137290e-08 0.0000000000000000e+00 8.7334154050785087e-07  -6.3060824717729617e-08 0.0000000000000000e+00 1.0293920425723005e-06  3.2096957237618360e-08 0.0000000000000000e+00 1.0442876684477307e-06  -2.4442902120787032e-08 0.0000000000000000e+00 1.5701169443229803e-06  -6.8389642534287524e-10 0.0000000000000000e+00 1.4391864749508074e-06  -1.9605335258402485e-08 0.0000000000000000e+00 1.5386263087211153e-06  -2.8716047682794300e-08 0.0000000000000000e+00 1.5399986065167285e-06  -6.1977095676567607e-08 0.0000000000000000e+00 1.1202155720297161e-06  5.2502848014990837e-08 0.0000000000000000e+00 4.4856628137214912e-07  -4.5417355154179743e-08 0.0000000000000000e+00 1.4376106994030449e-06  -5.3301603758710657e-08 0.0000000000000000e+00 1.1299097119429962e-06  -3.8381881889031207e-08 0.0000000000000000e+00 1.4070530235013400e-06  -4.1423278803468040e-08 0.0000000000000000e+00 1.0859028857289937e-06  -2.9796853383077676e-08 0.0000000000000000e+00 1.3301099254901048e-06  -2.6409417134619021e-08 0.0000000000000000e+00 9.5466666788174673e-07  -1.7684350031372691e-08 0.0000000000000000e+00 1.2280502168485644e-06  -6.6973729129243886e-09 0.0000000000000000e+00 7.3749593910107688e-07  1.1171565443249484e-09 0.0000000000000000e+00 1.0313776644733748e-06  1.6952269767205745e-08 0.0000000000000000e+00 4.0976099299179091e-07  2.3957794694900528e-08 0.0000000000000000e+00 7.4616823623613841e-07  4.0245445567188575e-08 0.0000000000000000e+00 -2.8658143393588907e-08  -1.1965594130130213e-08 0.0000000000000000e+00 1.3739587485708341e-06  -8.6920588538551405e-10 0.0000000000000000e+00 1.4424904891754157e-06  -5.7971156845646131e-09 0.0000000000000000e+00 1.3981939155426909e-06  -1.9316350923968501e-08 0.0000000000000000e+00 1.4834929291511979e-06  4.5831072405967915e-08 0.0000000000000000e+00 3.1208586492371507e-07  2.4422302501806351e-08 0.0000000000000000e+00 1.0290629600959876e-06  1.8324014362971360e-08 0.0000000000000000e+00 1.1442614409922321e-06  1.0436344072163839e-08 0.0000000000000000e+00 1.0539190771206006e-06  -2.3910457918192394e-08 0.0000000000000000e+00 1.5719322446451784e-06  -2.3169011767351427e-08 0.0000000000000000e+00 1.4836449550472490e-06  -2.9620910771166994e-08 0.0000000000000000e+00 1.5508638043944330e-06  -6.6762065126995898e-08 0.0000000000000000e+00 4.3542707271112635e-07  -4.5606218181155500e-08 0.0000000000000000e+00 1.4382673089072702e-06  -3.9019637979356700e-08 0.0000000000000000e+00 1.3891521026829166e-06  -3.4676841183355520e-08 0.0000000000000000e+00 5.1021937736338972e-07  2.9002744083974449e-08 0.0000000000000000e+00 -3.6444152767081752e-07  -6.0597794518534318e-08 0.0000000000000000e+00 5.6390253372891250e-07  -2.7618085846907706e-08 0.0000000000000000e+00 1.4792918080532181e-06  -3.1814861274325440e-08 0.0000000000000000e+00 1.2675975119168620e-06  -4.6675971370310696e-08 0.0000000000000000e+00 1.0348015460890097e-06  -3.1615986875619911e-08 0.0000000000000000e+00 8.1088564290482860e-07  -4.1338702374059154e-08 0.0000000000000000e+00 3.9130262868011634e-07  -2.0283067957047981e-08 0.0000000000000000e+00 1.0441346053121155e-07  -2.5204507289874823e-08 0.0000000000000000e+00 -4.0760985763245969e-07  -2.9331182768387834e-09 0.0000000000000000e+00 -6.2426445899501090e-07  -3.4368133720027314e-09 0.0000000000000000e+00 -1.0292065121394741e-06  3.6791002814019180e-09 0.0000000000000000e+00 -1.2851696962411222e-07  4.5147986768198880e-08 0.0000000000000000e+00 -7.9355858543338506e-07  3.0100973433655121e-08 0.0000000000000000e+00 -9.8195850958772718e-07  1.3022832773630066e-08 0.0000000000000000e+00 -1.1323989708398588e-06  1.3202932049129452e-08 0.0000000000000000e+00 -1.3682047506661020e-06  2.2986039259822139e-08 0.0000000000000000e+00 -1.3977563789216387e-06  2.2160243825606719e-08 0.0000000000000000e+00 -1.5233560865267592e-06  2.5532842422581704e-08 0.0000000000000000e+00 -1.5273934299949905e-06  1.3425799456730779e-08 0.0000000000000000e+00 -1.4826279266940839e-06  3.1796560941490920e-08 0.0000000000000000e+00 -1.3939819864374601e-06  2.4005180399233455e-08 0.0000000000000000e+00 -1.5632196285151838e-06  3.0885194510791417e-08 0.0000000000000000e+00 -1.5137631472051851e-06  1.4056764328846646e-08 0.0000000000000000e+00 -1.5254963533058918e-06  2.2299299685433897e-08 0.0000000000000000e+00 -1.5565368048859572e-06  4.5529970268878203e-08 0.0000000000000000e+00 -1.3345831784565568e-06  6.4113151763105301e-08 0.0000000000000000e+00 -4.0939727023198501e-07  3.9886781502041303e-08 0.0000000000000000e+00 -1.2633500500472012e-06  4.9384466906573972e-09 0.0000000000000000e+00 -1.4751001422452670e-06  1.1564992271891705e-08 0.0000000000000000e+00 -1.4770876884169973e-06  2.3579375778237099e-08 0.0000000000000000e+00 -1.5706396832457633e-06  -2.5098759776171108e-08 0.0000000000000000e+00 -8.4646551371933819e-07  4.3485181219628526e-08 0.0000000000000000e+00 -1.4436630201772223e-06  3.5680959426243877e-08 0.0000000000000000e+00 5.7149213832947572e-07  2.3769692845845630e-08 0.0000000000000000e+00 -1.5433035042085547e-06  -1.2364148835087076e-08 0.0000000000000000e+00 -1.3563424147430753e-06  5.9467272676360824e-08 0.0000000000000000e+00 -1.1278037356361619e-06  -1.1338754831500908e-08 0.0000000000000000e+00 -1.2724356437702383e-06  -1.0537943331515511e-09 0.0000000000000000e+00 -1.2457984762751876e-06  4.0716136135684106e-08 0.0000000000000000e+00 -1.0990286637351919e-06  1.4045647725910471e-08 0.0000000000000000e+00 -6.0068592714225231e-07  6.2405117591297616e-08 0.0000000000000000e+00 -1.2074160242877017e-06  4.3803927642709158e-08 0.0000000000000000e+00 -1.4759559665357133e-06  -2.4543191354177465e-08 0.0000000000000000e+00 -8.5303526213146781e-07  -1.1111587132601126e-08 0.0000000000000000e+00 -8.0971334460297604e-07  -3.7467000670600544e-08 0.0000000000000000e+00 -8.0322983654345402e-07  -1.9527023192167060e-08 0.0000000000000000e+00 1.0931418683150747e-06  2.8291526532263289e-08 0.0000000000000000e+00 -1.3275951525316519e-06  2.9283811929490806e-08 0.0000000000000000e+00 -1.4879815189245406e-06  2.3485159350846052e-08 0.0000000000000000e+00 4.4923423705139115e-07  4.4016901582663543e-08 0.0000000000000000e+00 -1.7659596777319742e-07  5.3769909382595000e-08 0.0000000000000000e+00 -6.2498436844542619e-08  6.6968735978697179e-08 0.0000000000000000e+00 -7.6565895781106022e-07  5.3841682539768653e-08 0.0000000000000000e+00 -1.0866424762646248e-06  -5.4719837530603118e-08 0.0000000000000000e+00 6.2261739212456272e-07  8.5640814847650447e-09 0.0000000000000000e+00 -1.1671492581952436e-06  -5.1689223365597911e-08 0.0000000000000000e+00 -2.0952717851247249e-07  -5.1895802579112998e-08 0.0000000000000000e+00 -4.8650365520156488e-07  2.7679160490291615e-08 0.0000000000000000e+00 -2.8256231467751994e-07  6.8800457711021886e-08 0.0000000000000000e+00 -6.2128255549546517e-07  -3.4822183600842313e-08 0.0000000000000000e+00 -1.8869722073989095e-07  6.1186679433859121e-08 0.0000000000000000e+00 -1.1512518123376502e-06  4.2025074770583331e-08 0.0000000000000000e+00 -1.4359509076307120e-06  2.6576898421003321e-08 0.0000000000000000e+00 -1.5463408677986793e-06  2.3754459214667341e-08 0.0000000000000000e+00 -1.5586402989706240e-06  2.5370739317200533e-08 0.0000000000000000e+00 -1.5777665236066960e-06  -2.8846808912861742e-08 0.0000000000000000e+00 -9.9693389735179202e-07  -8.1793302041948390e-09 0.0000000000000000e+00 -1.2997102400358662e-06  -1.8446360086458474e-08 0.0000000000000000e+00 -2.1558722379902301e-07  -4.2699474872437202e-08 0.0000000000000000e+00 -9.5175207058780063e-08  2.7262672903536583e-10 0.0000000000000000e+00 9.0714929031529905e-07  -1.7786442495468372e-08 0.0000000000000000e+00 1.5495380278522080e-06  -6.3561665966015281e-08 0.0000000000000000e+00 1.3699955256353265e-07  -1.6511135748113162e-08 0.0000000000000000e+00 3.8050821797501274e-07  5.4640304160418672e-08 0.0000000000000000e+00 -7.9012593995124980e-07  -2.4146176201484127e-08 0.0000000000000000e+00 1.5633753268640761e-06  -1.0656100023524841e-08 0.0000000000000000e+00 1.2878169107229383e-06  -2.2518212063912906e-08 0.0000000000000000e+00 1.3982383823695708e-06  1.4694739720326394e-08 0.0000000000000000e+00 -1.4260698659854371e-06  1.7286772393441035e-08 0.0000000000000000e+00 -7.6666194015119676e-07  2.7344765836161761e-08 0.0000000000000000e+00 -1.1617264214379773e-06  -4.8830988084959924e-08 0.0000000000000000e+00 -1.5476665697442844e-07  -4.7038641448487127e-08 0.0000000000000000e+00 -6.7580505530179453e-07  -2.1559948215014035e-08 0.0000000000000000e+00 -1.2251733284125393e-06  -1.2278345438714486e-08 0.0000000000000000e+00 5.4669589458328703e-07  6.7229214611679373e-09 0.0000000000000000e+00 6.2243856935062797e-08  5.6420735591271312e-09 0.0000000000000000e+00 1.2157058271307875e-06  -2.4218208922634098e-08 0.0000000000000000e+00 1.5627730586173619e-06  2.5867725316718740e-08 0.0000000000000000e+00 1.1185944802617332e-06  2.3844786592069410e-08 0.0000000000000000e+00 -1.4911966644015298e-06  5.4943520417312544e-08 0.0000000000000000e+00 -4.9091371447110047e-07  -5.4819548349052655e-08 0.0000000000000000e+00 1.1693146998823244e-06  2.8858208499933635e-08 0.0000000000000000e+00 -1.5478732614334714e-06  -4.9598456396575007e-08 0.0000000000000000e+00 5.8170346447699119e-07  4.1016135738161422e-08 0.0000000000000000e+00 6.7754159440348243e-07  8.7786588148939552e-09 0.0000000000000000e+00 3.4034935639210970e-07  1.4430352632328845e-09 0.0000000000000000e+00 -1.3036749671400629e-06  -2.8944212123801875e-08 0.0000000000000000e+00 1.4971171278726574e-06  6.2480900139843336e-08 0.0000000000000000e+00 -4.1468074386753240e-08  -1.0225509602620769e-08 0.0000000000000000e+00 1.4537673085264917e-06  2.4371803772153284e-08 0.0000000000000000e+00 -1.5632944880822556e-06  1.8180209634629247e-08 0.0000000000000000e+00 -1.0901420147506350e-06  1.9216863850459488e-09 0.0000000000000000e+00 -7.3835656013177267e-07  -2.3648149490347246e-08 0.0000000000000000e+00 1.5192948866510017e-06  6.1559997720520535e-08 0.0000000000000000e+00 -6.2311057469754819e-07  -6.3787830121706889e-08 0.0000000000000000e+00 7.6499610987328795e-07  -3.7658381048226480e-08 0.0000000000000000e+00 -9.3535051705462488e-07  3.2360403123788471e-08 0.0000000000000000e+00 -8.4991481413312654e-07  -1.8505223930198048e-08 0.0000000000000000e+00 1.5086269557011867e-06  -3.8143204966010287e-09 0.0000000000000000e+00 -1.7070498876493349e-07  -4.4238249563507131e-09 0.0000000000000000e+00 -1.4081142688939257e-06  -2.6738855949995674e-08 0.0000000000000000e+00 -1.1231916740343433e-06  4.3562013109595724e-08 0.0000000000000000e+00 -6.9770285657278093e-07  1.9369075151478201e-08 0.0000000000000000e+00 -1.3450018411284382e-06  3.1589261666182622e-10 0.0000000000000000e+00 -7.8587883359777093e-09  1.5709379846713527e-08 0.0000000000000000e+00 -8.6908836867792241e-07  -1.9704354790408473e-08 0.0000000000000000e+00 1.2193783562531203e-06  2.2479772377607583e-08 0.0000000000000000e+00 -5.5416828603101292e-07  -4.8442777794185150e-09 0.0000000000000000e+00 9.7409904066702556e-07  -1.5345799406902746e-08 0.0000000000000000e+00 -6.9102838864053901e-07  1.9583925012993407e-08 0.0000000000000000e+00 -1.2427819698067738e-06  -1.6557789609770701e-08 0.0000000000000000e+00 2.7431110110848903e-07  -3.1924802543161306e-08 0.0000000000000000e+00 9.2919606357131890e-07  3.7290443557721668e-08 0.0000000000000000e+00 -7.5457003849233927e-07  9.5693755488141896e-09 0.0000000000000000e+00 7.1046593471990357e-07  -1.9381388353823643e-08 0.0000000000000000e+00 -2.7595557764494755e-07  -3.5178041834544948e-09 0.0000000000000000e+00 2.3512166013961296e-07  -3.9725245506099594e-08 0.0000000000000000e+00 5.8660438536816070e-07  2.8086347381341385e-08 0.0000000000000000e+00 -2.3105360891958598e-07  2.4209735294324072e-08 0.0000000000000000e+00 5.2425109589377239e-07  3.6671373530133402e-09 0.0000000000000000e+00 -9.0488802514124304e-07  5.9888193035068258e-09 0.0000000000000000e+00 -1.2360103118718626e-06  -2.9536946191091954e-09 0.0000000000000000e+00 1.2619642374109634e-06  3.8970981750042105e-08 0.0000000000000000e+00 -2.0550362115040286e-07  4.7913861910231965e-09 0.0000000000000000e+00 2.8447701555195291e-07  -3.3479687757435167e-08 0.0000000000000000e+00 1.0964435842346952e-06  -1.5540972718262778e-08 0.0000000000000000e+00 1.0687959576359694e-06  3.5734102784171747e-08 0.0000000000000000e+00 -1.2208851339749428e-06  -2.3744361186387109e-08 0.0000000000000000e+00 1.3739448938959322e-06  -2.5296020774373842e-08 0.0000000000000000e+00 -3.5283272342967757e-07  3.0102422299776186e-08 0.0000000000000000e+00 -1.3493164411973277e-06  -3.5037942378894415e-08 0.0000000000000000e+00 1.3499351796965728e-06  -2.1395836998973819e-08 0.0000000000000000e+00 1.0546993692913465e-06  5.5053650584403194e-09 0.0000000000000000e+00 -1.3003784682586844e-06  -4.3879522408706599e-08 0.0000000000000000e+00 3.7569183740244398e-07  -1.5759951790964882e-09 0.0000000000000000e+00 -5.4238178128725933e-07  1.8408934451941237e-08 0.0000000000000000e+00 -5.1974259308946754e-07  9.0787231953138258e-09 0.0000000000000000e+00 6.1269625516565788e-07  2.4805735653830875e-08 0.0000000000000000e+00 -1.1727703528544742e-06  -2.8614329049410601e-08 0.0000000000000000e+00 5.2861678267441050e-07  1.5165565509554398e-09 0.0000000000000000e+00 -3.7447992560595958e-07  -1.7151933107171928e-08 0.0000000000000000e+00 -9.0428879759776500e-07  -1.0074039959086012e-08 0.0000000000000000e+00 1.3162701266518059e-06  1.8569833680373412e-09 0.0000000000000000e+00 2.0866845424616205e-07  -2.0505617812136089e-08 0.0000000000000000e+00 6.2820103955257299e-07  </DataArray> 
</PointData> 
</Piece>
</UnstructuredGrid>
</VTKFile>