<?xml version="1.0"?>
<VTKFile type="UnstructuredGrid"  version="0.1"  >
<UnstructuredGrid>
<Piece  NumberOfPoints="201" NumberOfCells="657">
<Points>
<DataArray  type="Float64"  NumberOfComponents="3"  format="ascii">-0.05380174799129993 -0.02281414157254903 610.6630712323466  -0.02694305937533146 -0.003197614562850131 -610.7134902059379  1167.363460466007 0.01366767447563297 -581.5294925910133  2218.843346334368 0.002090275005866839 -496.120537547593  3051.109889532542 -0.002540206205523726 -361.9525934665579  3584.188542119789 -0.006884737925354481 -190.7885125778813  3767.65433489165 -0.03107567253515612 0.01246535722305089  3584.201367253055 -0.04055454876079591 190.7763175072457  3051.107549180761 -0.01629500513793388 361.9170741176277  2218.825783263507 -0.00553708032368929 496.1343705787717  1167.368619015139 0.03025138013689008 581.4680611660823  1478.283347067795 -1097.390682197998 -532.5783865363469  1468.886031912306 852.4918341185173 545.4837276508426  3586.473209261376 -975.0197882390922 -91.60940306901705  2585.403442983227 -1065.07001547157 410.0436023133552  3263.509365852458 986.5499698189642 259.4234606251149  3250.020403680368 986.4899388601983 -263.9105768674141  1650.568013929815 982.198147372131 -525.6915836055316  569.0299579852945 -982.6467155540244 581.5021926998646  2568.7614395342 -981.469011643196 -418.594792173248  1788.199708476036 -1925.85298122845 -432.3953156053963  2655.004415117954 -1886.314485310754 -298.7265823017666  1820.325753474232 -2696.300033402056 -286.9927298334678  2563.660502918994 -2529.323324230778 -141.5959676772908  1608.547794147063 -3208.618251273569 -120.2750386906947  2290.157247371699 -2879.238820204045 30.44069482008324  1202.905426124443 -3427.830457992324 54.88496622506066  1745.377709961952 -2978.771766656709 208.088841508627  628.7571243561653 -3338.124035651133 221.190274671996  1117.741030762575 -2724.49810864734 364.5976631830147  -43.43889063814062 -2926.584631675082 365.2766132807942  2676.545444745844 -2339.874850456037 175.6439435748127  2568.820042197613 981.440360856907 418.5929229176044  2601.192794762499 1898.822193592168 308.9381201995304  3148.272193876945 1818.585711722272 140.1212684178941  418.4341806746374 -2176.230212367525 486.8436129541122  1532.148521966835 -1907.973528767846 459.4729333455745  1788.177201735165 1816.144218761631 445.6221279266416  1721.692290911338 2654.929294737505 313.0746685803659  3593.368587395905 -951.2723730437896 91.60115209438408  3168.059951626753 -1965.607476540617 10.61350230747105  3270.777344897682 -987.4238970961972 -256.8531163191474  569.0211708044845 982.6618726553254 -581.442520963374  2543.319735743602 956.9014196888131 -424.2821987431435  2581.307614611167 1888.64803628399 -315.0942270064356  780.8746248331498 -3238.820731525715 -249.0422520577065  -546.3464472819238 -3377.743514585358 209.4388320394071  763.2750599048591 -1976.209618871422 -499.710880806677  3126.80715864746 1840.350335311824 -144.8091189965048  2338.346097042264 2658.68609136893 -174.2544065718389  1661.40468448259 2589.040314607081 -336.675480311097  1310.892125930867 3222.616442682006 -187.7924748279477  579.4595043534921 3027.574700442519 -327.6594987208674  169.4705428997356 3488.720207221309 -170.4320117401718  -593.9779771944238 3114.753437174196 -302.5598729848995  -979.5465078130065 3426.02148324993 -128.5962117794448  -1726.806050529445 2926.776985359163 -232.2296529963648  -188.4408701813441 3627.896832775782 11.40451808448617  -1204.366963600681 -2813.020958840043 337.0011653991318  -1662.454073565899 -3109.000187334847 167.2588023780999  -2026.748949178259 3040.47761462323 -62.85692196185937  -2677.592784918523 2378.761811796775 -159.399717128011  -2851.601189063138 2373.032722468382 14.27093154539634  -3345.385921971545 1565.751844241001 -99.68581379665544  -3391.173131550774 1486.1987173536 92.97381654925901  -2973.448800681948 1484.783002794834 -283.2850429459927  -2743.040435869413 2196.494082134129 200.0136420912418  -3539.650987905449 649.2733190358105 -180.9284523217041  -3134.260977390074 1222.294160994524 272.7885568955752  -3015.291488199032 417.1222584919319 -363.0268061425838  -3384.214869261221 -471.6393248699875 -259.5929423674828  -2332.84223435905 1843.280060944681 369.5674844640787  -521.6745760793705 -1508.562011913283 550.5280535937425  -2271.269758114455 -2405.140444136886 275.2174948877693  -2710.395501658592 -639.3142311217958 -413.8145620099667  -2926.291082103035 -1499.672551037455 -293.9556390135959  -3620.661225116207 412.0805290688292 156.1756129509366  -1261.140304490815 2425.797359383272 -409.4784100112219  -2581.163616280469 787.3910690778453 428.143118320648  811.4679390611782 2451.527427012696 434.3175101250081  -3488.153151713225 -1227.890858607141 -104.7470132962926  -2197.261134437303 255.5017532828195 -496.8442850218627  -1711.82615847691 1403.686027650997 492.8065109673916  -2110.369007169909 -1614.418099118356 -430.3126362987961  -2208.06993367139 -2402.009616701259 -289.3767523618864  -1860.79384951586 2704.787686274599 277.616024087331  -949.5853018757438 -3508.115835041057 39.76416456343237  -1803.491573644116 236.4020960766526 536.5670949243854  -2662.615069043631 -341.263737992123 431.6065432119413  -1275.343283445961 -2410.321786150547 -410.8613547105594  -1278.554279071465 -3070.561495765764 -255.3001922123135  -1099.954243909573 -1527.549776002214 -526.6837651896451  1910.332386655258 3129.724554808091 -17.43081855222351  -2569.276398064858 -2578.658242270254 109.4928909975924  -3094.09719428142 -1741.80303688298 191.5185968958283  675.1059736459998 3153.955134031297 285.9189829709921  -243.9076166613357 2845.808486197564 380.9500492946412  -84.55945597736692 2145.87210861953 495.1584533631395  -1023.232568950807 907.2163349458127 568.821639763671  -1704.544189477366 -1968.525309956334 435.836639766732  889.6975330278505 2396.829505032489 -438.8688693374303  -2112.05481965909 -2902.911191109514 -134.7859414159677  -279.5840989062587 1839.84126592339 -526.6157647913481  -619.9372896986616 789.2543667693344 -588.2595427468005  -419.4163855919138 3394.562352439593 209.3842451478899  -798.195433604381 -558.7446560551025 589.9438015311589  -272.5140558993555 -2979.63999378037 -350.0769447761347  -1723.575813336958 -897.2737422034066 523.8618347201748  -2654.197630329783 -1443.111562362331 362.7445794601401  -3302.739467894762 -693.3317515441936 273.0810378406384  -3611.842548435393 -899.688929964646 86.72051431981227  -3751.386844309106 -116.9884371663731 -53.70192428005073  -1449.908745753985 1562.910141494844 -501.2153356327624  -2197.503332939318 1727.671035624939 -405.6465114105458  -320.5816009345278 -3420.362184113816 -201.860968165649  -128.3537426067028 2687.388570526845 -413.7736697619186  1502.656149635321 3194.389536746222 161.1641188299788  3249.01506339429 -943.7908402942031 268.6590857236995  188.6875530401674 -1031.272521282056 -585.4267221764801  595.5621859578109 -3543.786590929324 -95.10686007145708  -1148.934730203477 2323.699471818377 434.1417778369312  3601.795535238066 914.145694276324 -93.56343281460447  2407.592332010123 2634.451232396621 158.836560321996  2839.707429941888 2387.282350394209 -7.060891556144114  -2877.032979450158 -2159.548880244086 -156.1015594601959  -1248.349161467185 3416.301691033463 48.06745326640322  -2094.472608939522 2946.40432649454 112.9551186414361  -204.7064541927223 -2224.788675237131 -484.28606092241  -880.3599647580787 -406.3790074613281 -590.464983323814  -1854.803110590089 -651.8336276837115 -522.3179719817864  870.357261187047 3529.982827650163 -31.5695802117809  101.9223631924981 -3609.411899613458 68.62372885097604  2082.173249030376 -2297.15137187334 335.068859478215  3608.111638228711 925.8487753329897 83.03929398946964  1651.462134431455 -975.1054896453687 526.0188730663808  -3186.687344607345 -1936.291958882586 15.25914389601194  -675.4490913311453 -2400.301081330015 448.2354818879509  1838.482297493798 1760.732338186353 -446.4842757897452  -3230.352478320674 289.8236014917911 314.0124170043188  846.7238338983395 -2708.087960187788 -386.71601877378  924.7747880895809 1747.848567642636 516.1714141412752  536.7314060459621 3514.473024181608 129.7195036158792  -2344.76664478978 2278.805884503046 -289.319391778901  3151.558889301681 -1751.409786518135 -161.3680479325527  -57.83728086496937 947.2118332300604 589.9645361214914  2855.608272380053 -1705.251653468045 279.9694463047225  -3658.040888434225 865.9299906628164 -14.06596829451697  -1947.427603031301 -3110.073277514764 5.927844420598215  -1189.381597456128 -3394.677136911396 -102.3457376526343  3380.092539111678 1604.890521794554 -4.313932959725923  -842.7006488811078 1793.170793876876 515.5007878494819  1048.689525865559 1628.426459388485 -520.9575880646448  -1273.487845409281 267.5496087113015 -574.036313009848  -1377.934971262596 3179.460964944287 196.0324828227394  3205.278790376425 -1628.999362616357 169.7990083369109  -256.7449214480313 -3606.439047970774 -62.00656774255583  -2419.938639649718 945.7824785031981 -443.4684149534952  -1654.980074052841 804.2394426385999 -533.7166386012667  -1054.421896717944 2924.765833154135 322.8458548269524  -2649.296328494792 -2575.367051647867 -34.54474629008777  0.002405932606552041 0.01033092121154728 -0.005178158681263023  -1204.263032790423 -1424.621656608124 16.94341491137002  1820.986373341422 555.5806630262153 -2.801581053417385  -725.5702786672089 1497.563858404245 134.8534662199408  1357.492150832379 -1061.603793432889 122.6858222992912  -884.8711701274028 155.4587139812565 -272.0627141416467  -1872.928888295877 282.743425351451 0.22104101623681  357.880089634238 1693.87572615894 -117.1259592049079  1265.340288870679 -834.8349466100613 -183.2839720784355  -984.5036278302211 -158.6610705428086 263.9511873537405  943.7680415957394 1260.460142939678 213.107027638849  -348.4943772068468 -1438.520161768856 -231.4357562547047  311.5657622072561 -2076.719321815422 1.127429717499742  751.6624228619081 551.875506
[...]
<PointData  Scalars="Pressure"> 
<DataArray  type="Float64"  Name="Pressure"  format="ascii">-6.1872760258121724e-02  -6.2115890192647759e-02  -5.7802483936082019e-02  -4.3852479844300254e-02  -2.4586456018301454e-02  -1.2751210054495071e-02  -8.1901891347905664e-03  -1.2288906284059735e-02  -2.5156774528648913e-02  -4.4048116110169684e-02  -5.8580187806268391e-02  -5.0876189951082958e-02  -5.0694582377179817e-02  -8.5712376403671939e-03  -3.1503262518642529e-02  -1.6817100980026263e-02  -1.7511753628406249e-02  -4.8512913218757940e-02  -5.9184667538245458e-02  -3.2875139039920592e-02  -3.4674154442108973e-02  -1.9592251840049105e-02  -1.9502832778429284e-02  -1.0515306443709184e-02  -1.1028723201087356e-02  -7.8803036043146504e-03  -9.3361609627846745e-03  -1.4808806591858294e-02  -1.6429122172801999e-02  -2.6773946110866934e-02  -2.6315706402660139e-02  -1.2666359478090224e-02  -3.1977320104454199e-02  -2.1872939366030041e-02  -1.1599094378081523e-02  -4.2916438244847609e-02  -3.9464627982429855e-02  -3.5125940422890196e-02  -2.1569796265706279e-02  -7.7191983440255086e-03  -7.8431212115327893e-03  -1.7249010499292641e-02  -5.8328769885858840e-02  -3.2844460862892853e-02  -2.1355733554942646e-02  -1.8141169455717813e-02  -1.5363896673743700e-02  -4.4375079386732214e-02  -1.0627646673394647e-02  -1.2152489795440450e-02  -2.3610744038825165e-02  -1.4095757565216201e-02  -2.2735066356894575e-02  -1.3276099494979147e-02  -2.1331914458667386e-02  -1.0850368349115833e-02  -1.5628294873273829e-02  -9.3851477802946847e-03  -2.4559339505932060e-02  -1.2817686064245800e-02  -9.2501273523153422e-03  -1.1467943152148011e-02  -8.0731404496769566e-03  -8.9441813843164752e-03  -9.6710469026344975e-03  -1.8512159426727976e-02  -1.2601899965951596e-02  -1.2328708666248748e-02  -1.8225300929858589e-02  -2.4794416854744636e-02  -1.7219560520282919e-02  -2.5512577326192956e-02  -5.1914640855624902e-02  -1.8262740041762468e-02  -3.1670661256765376e-02  -1.9556878446569871e-02  -1.0134964432781651e-02  -3.2685709915116226e-02  -3.3669151908195041e-02  -3.5425818651691011e-02  -7.9513099912137640e-03  -4.3217210767571290e-02  -4.2898720885907411e-02  -3.4472730262248168e-02  -2.0377228110300970e-02  -1.9885392716883433e-02  -8.9822903596670396e-03  -4.9770051075902023e-02  -3.3233979494253711e-02  -3.2646172520699089e-02  -1.6811433413614546e-02  -4.9566344459822068e-02  -9.2365282083162990e-03  -1.1357649861249786e-02  -1.2200738103601946e-02  -2.0459286805845401e-02  -2.9278842890059931e-02  -4.3880500658883562e-02  -5.5469157280575936e-02  -3.5311495156325215e-02  -3.5865201223526572e-02  -1.2133250518286950e-02  -5.0780739216529716e-02  -5.7123097364580308e-02  -1.5086216937438024e-02  -6.0185839587685579e-02  -2.5355574861683498e-02  -4.7728525353562624e-02  -2.8058101744603495e-02  -1.6207635399361476e-02  -8.9301111654994485e-03  -7.1191556184909549e-03  -4.3967518765883125e-02  -3.0153116125805686e-02  -1.5037658911743657e-02  -3.2981011963631672e-02  -1.2468072194192912e-02  -1.8024905715142134e-02  -6.0389507669533007e-02  -1.0121581513582513e-02  -3.5255200527092967e-02  -7.9443809531391085e-03  -1.1196729720551630e-02  -7.5342071529890852e-03  -1.1151061800597795e-02  -9.3666685508905830e-03  -1.0612651823871590e-02  -4.3713982920116835e-02  -5.8212010538946299e-02  -4.9236717602492298e-02  -9.5039718463021897e-03  -1.0003139255687491e-02  -2.2365200131554682e-02  -7.8987197824159899e-03  -4.7839202801739637e-02  -7.1103761093378286e-03  -3.7169077686326546e-02  -3.7152180366859154e-02  -2.0466379565910891e-02  -2.9142399541184739e-02  -4.8379505342600514e-02  -1.2173423153073053e-02  -1.9230458793551241e-02  -1.1461215829521944e-02  -6.1656886221659178e-02  -1.9556855068068889e-02  -7.1805700365889080e-03  -8.7742768929274604e-03  -1.0353730575734459e-02  -8.7142080555750300e-03  -4.7041128516123042e-02  -4.6619742891046270e-02  -5.4865248651367257e-02  -1.3392529993954488e-02  -1.1780299428947458e-02  -9.9467676957308258e-03  -3.5771860787938203e-02  -4.8595935951916934e-02  -2.1310729002310867e-02  -1.0820151229827100e-02  6.8851028949120105e-03  2.0389025812931742e-03  2.7592442703431876e-03  -7.3815822659020606e-04  3.4999203329532004e-04  -7.2599191626542981e-03  4.5023102937462338e-03  1.5228533058909801e-03  -2.9265678517482411e-03  -6.1189893226849795e-03  -4.5193061862641706e-03  -6.1850507700799166e-03  1.5453816838694849e-03  -1.0787009711294586e-02  -7.0831110768659247e-03  -1.2810589046163558e-02  -9.4944547357799132e-04  -2.9824899336963039e-03  -5.3879018860674456e-03  -1.6463820207356435e-02  9.9050440662823067e-05  -4.6335905160095354e-03  1.5641805703392732e-04  -5.4532156422977991e-03  1.3638214978599541e-03  -1.4732793158695572e-02  -2.0777407591844881e-03  -5.6669364777281192e-03  -3.1956353114813679e-04  -5.1395780871961753e-03  -1.9788852275095914e-02  -1.9875894497555489e-03  -1.7258565662226855e-03  -5.5617333358754639e-03  -8.2898701838010245e-04  -6.0977091958297957e-03  -1.4010514733348639e-03  -1.8089424433939672e-02  -3.9006483332200545e-03  6.0192096213353688e-03  5.1536586758271462e-03  </DataArray> 
</PointData> 
</Piece>
</UnstructuredGrid>
</VTKFile>