<?xml version="1.0"?>
<VTKFile type="UnstructuredGrid"  version="0.1"  >
<UnstructuredGrid>
<Piece  NumberOfPoints="201" NumberOfCells="657">
<Points>
<DataArray  type="Float64"  NumberOfComponents="3"  format="ascii">-10.08058097007573 -0.7846340251803071 540.1712275310728  -3.941770279370937 -1.129107351250891 -544.2045373405929  3682.510473383212 -4.863340770472894 -573.2285240144353  6612.073716429241 -4.968555160321686 -596.3407984143336  8552.998682541576 -4.713972197506852 -548.5713547717086  9648.526158362336 -4.91110795247406 -328.7061917689763  10004.56037829606 -6.930249790616084 1.53836010656964  9649.66871143153 -8.074467917476264 328.5562074250684  8552.953741711297 -6.433018970519237 545.7752930072925  6611.598762945112 -7.618988124214048 595.6607407189226  3684.721577900141 0.8026850288793398 567.6041407182444  4500.082045159696 -2880.545275764183 -593.6062165925  4520.710625060777 2251.002716314149 584.719718389401  9562.984781730054 -2311.284139591877 -164.1912620251836  7382.103084147764 -2656.01976459245 578.3075710642826  8899.198166974496 2374.094089797654 432.1432503075953  8875.316523176019 2371.328734909267 -436.3604146003851  5001.907303001127 2566.766421529511 -596.210993101799  1797.289871031963 -2658.245217439965 568.202796691462  7358.669480727503 -2458.125056826214 -578.9124405481324  5154.022324296024 -4840.897895524335 -578.6491678233936  7320.010212906199 -4568.999964084431 -469.9217173296873  4998.819039115117 -6505.151232993464 -451.819828562729  6864.396058516818 -5980.52183960241 -244.8772809220981  4299.587464397328 -7566.853522454573 -205.2004942906204  6087.530576168232 -6765.672948790214 52.9477586495522  3194.050815480473 -8055.051023320009 93.73194865634376  4716.158033837112 -7089.804841311427 344.7350119383887  1698.360227270332 -7959.657856178553 356.4466319088475  3140.259411698492 -6696.705613061231 526.9494730645984  -123.505674217367 -7193.83286106739 524.2704723098443  7203.05454065823 -5555.466859004045 295.5239241226071  7367.664802556434 2448.694130065426 580.4733542739096  7187.481429998368 4602.213575767961 484.0275103979761  8428.092982195309 4302.953738773641 242.8471966122373  1239.00010753901 -5598.198049114549 576.0553626508715  4487.292493051054 -4848.321077016279 580.0082669659919  5186.517728166476 4579.072799344037 585.549253277337  4757.367725621986 6435.94557925626 477.0265806027851  9582.890706861768 -2255.816513409704 163.5618061728021  8429.617272844176 -4632.302446011267 18.0789192586696  8925.67852298103 -2381.327801024929 -423.9368882542433  1784.801125560828 2659.966058057995 -561.3430008393952  7308.386467152777 2397.644311429522 -585.341151291191  7140.116706938151 4584.063430513485 -491.068805390538  2122.501971250637 -7758.415771931996 -395.402713122881  -1491.300329475322 -8047.469400276202 340.0911168955465  2286.376609316812 -5105.839822384697 -581.2644805765042  8375.09458224395 4361.494684412165 -252.5327067836777  6287.105552546638 6297.634942922778 -295.476268059579  4628.459730703862 6307.762681897847 -503.379448566157  3531.995994622195 7642.335238460088 -309.2876385940401  1606.972406198387 7358.129778209545 -488.0923521793526  442.3361507258916 8252.919139572585 -280.9159968183767  -1653.210437062216 7536.70634180557 -458.2408433401879  -2638.821909552888 8082.537777063511 -217.6448234851116  -4703.655911224083 7003.998146701278 -379.9466426426999  -518.1297327922833 8506.246401319911 20.5471975354234  -3365.567640064795 -6869.352912563367 498.5916138473223  -4471.165127830724 -7377.402822872817 279.7763474463459  -5411.346468354885 7164.827271017805 -109.4865413897094  -7188.911143597753 5661.079666324866 -273.8515500097757  -7578.19118817713 5602.646232926741 24.7419277372117  -8924.609313625193 3710.926342344863 -177.6275546128925  -9037.207688588212 3522.750477625886 161.9252541616845  -8148.139639180279 3600.460644523846 -456.832560678971  -7403.121631530389 5249.380932830981 339.2016656223361  -9501.300125855845 1565.074941353733 -316.0008281353299  -8565.467735270029 2959.929778792999 443.0280053307078  -8441.620081798206 1042.48218420103 -547.6261547798576  -9200.778228045285 -1137.395766054346 -430.813870866455  -6570.697885483957 4552.820852852733 541.4462221798458  -1622.884675961217 -4000.878643588878 567.6803500537113  -6222.356279339494 -5807.895848089473 436.9863611044958  -7736.883412650795 -1595.924940960778 -579.4603387286545  -8033.387772266164 -3640.6500825862 -468.9817073608667  -9682.118423896727 997.6837206262238 275.2437000506527  -3614.876209118851 6047.469096689768 -562.6249144039447  -7416.040427592656 1988.051247881617 587.580192447047  2344.84436689453 6154.792706900609 572.9430564863846  -9279.342795245171 -2912.55324227949 -188.1680467496585  -6531.60729338608 661.3929253632409 -600.5790515328446  -5087.122476191579 3632.905664782123 593.4578196500028  -6070.099237211629 -4062.263884139481 -582.982072796048  -6069.146048550084 -5809.401688005671 -454.1850503169028  -5106.854806134975 6534.128574434436 439.2681502651293  -2533.422992725413 -8244.772902695922 69.19669483766113  -5501.329002743911 624.1233853253274 587.4315617396163  -7659.626452531852 -852.6520321879618 590.3150038100796  -3652.133816716043 -6011.282582181122 -560.297331275736  -3493.444823377425 -7370.79569731411 -407.5962052593022  -3344.583631816557 -4005.161995652075 -589.2416991490294  5087.60710921618 7339.87487729946 -30.14928785448626  -6863.609437431351 -6100.817470528071 189.2257003757863  -8329.720138865767 -4159.746679951671 327.8624784335332  1850.483723046382 7597.509864125318 441.1082231702703  -707.3910038381315 7019.917580871866 530.7832676606231  -256.6600489026971 5523.080194187379 585.9986757671898  -3197.412578920902 2438.387892408684 579.5587266542692  -4921.831610608212 -4961.910462999096 580.6031542833427  2573.271879150016 6033.518088093984 -571.4370019668893  -5654.01449135944 -6876.90190898373 -229.8884088569692  -848.2599614493151 4817.192190507351 -580.1804305844291  -1966.632187422814 2146.265102040229 -566.5762078498866  -1151.994656895546 8076.516327264168 337.6112993847944  -2535.772107524728 -1532.810432725294 556.820641837954  -763.0714815682545 -7299.540837368636 -509.2210943463045  -5202.74100004977 -2348.669889741332 597.8404256010435  -7443.174483805386 -3562.938888797129 535.6264188501739  -9007.35131606611 -1674.727624875389 451.2572907745617  -9590.745646224432 -2132.776213179701 156.3812324739689  -9945.73238163753 -269.0663863454607 -98.67980380332048  -4340.23280503263 4047.758714534499 -594.9727735646759  -6270.28403999668 4312.733462423054 -568.5906982082223  -877.6813700712951 -8139.454935021545 -329.9630892738078  -375.9477358052078 6694.716531321124 -558.7814525043839  4034.408446789451 7550.441208707767 268.7056369517075  8886.33297491202 -2276.500855553857 438.1729572675152  581.58071684769 -2795.698101200188 -558.0744373034901  1583.444600388275 -8342.256037946094 -162.590912056032  -3327.36217797144 5851.208394147809 570.489879943946  9597.983401826656 2161.116328300615 -168.5565816202177  6460.346883299863 6231.314377471853 271.5533527608375  7547.588743322291 5608.501943016297 -12.78664141028695  -7711.912217627794 -5132.979567793863 -266.4967195266353  -3338.638409275255 8032.710283760674 80.95096555584767  -5602.922658248576 6963.637758539606 194.1188535944521  -606.8212033718346 -5714.140815231933 -577.2674133494119  -2790.469060651125 -1106.154917937726 -563.4870923797806  -5606.003831730172 -1698.4752188917 -596.3024244048959  2308.066831015273 8283.015700697932 -54.66097351886359  259.7232058535583 -8485.018934045953 117.1602968400808  5789.785917610723 -5607.942957689145 505.6877741322577  9607.170754208782 2189.379642487952 149.6303965876736  4996.738256809531 -2550.206638516981 599.5525204739429  -8468.26637535346 -4571.317237516421 27.57758574126662  -1971.698208578076 -6068.978321144713 570.9428475557694  5334.417019980436 4443.142774891772 -583.898969282459  -8903.363183383335 716.5619661101948 498.3742552174771  2396.121630791928 -6701.981376000551 -540.3281484828382  2787.010415220909 4553.24850095961 584.9888402030837  1423.76611227009 8282.287165036929 216.7235300666688  -6454.55961611188 5522.754992876632 -456.4891854014798  8467.688895488875 -4157.941061286012 -276.6849404589049  -186.1666002068579 2570.385293954578 549.7929345412992  7830.397308535885 -4126.55348834579 447.330706944069  -9702.848947903658 2062.422996672193 -26.75464321645712  -5177.24368926852 -7324.218282249222 8.033749859061887  -3180.082240591795 -8002.075003060545 -175.5511636261287  8986.379249457772 3777.793702992995 -8.653699225279512  -2549.612787072126 4668.830477424663 585.8208320308371  3174.542263077761 4243.128058191776 -590.27964965015  -3991.365128754369 727.8728916837412 -570.9073428603198  -3736.201844845888 7564.973227078757 322.448293426702  8616.735660962275 -3875.201441454867 291.294674723118  -697.3908719662365 -8481.102354647817 -106.2493292647765  -7012.451628372566 2403.311284255821 -587.1221292056169  -5027.058496182462 2122.405389752063 -595.4499977188406  -2940.986867848481 7112.013966743119 484.6431749321667  -7045.75677856112 -6072.048951534101 -59.25382125850417  -1.917237495542554 0.3756248582650298 -0.7031439109764711  -3673.417526581316 -3750.93262729407 17.39903394391168  5547.909905037057 1462.915022803878 -3.721052937510747  -2246.996040535876 3971.882647588703 143.088015424631  4176.948833260369 -2814.639003483902 132.205044993003  -2834.453835011656 428.9505656642893 -254.3200828794088  -5707.126470532853 747.6380523215464 0.2628511451713399  1103.342316964174 4480.358821251692 -125.4608685189556  3943.256782090765 -2229.732933835913 -189.0502813093514  -3131.423173106244 -431.8318556217838 252.7701189015933  2930.325902370825 3353.560588425376 222.2922676125264  -1087.239287027557 -3841.002449437518 -238.1845490513043  937.5017585113667 -5391.999729858714 0.757738356017161  2392.741000537485 1502.192882861432 -284.5582720125725  -915.950457741497
[...]
<PointData  Vectors="Centrifugal"> 
<DataArray  type="Float64"  Name="Centrifugal"  NumberOfComponents="3" format="ascii">-2.3972162716018510e-07 -1.9060986286432115e-08 0.0000000000000000e+00  -9.3520987491896715e-08 -2.6754435966275899e-08 0.0000000000000000e+00  8.8585926043329414e-05 -1.1481639724974118e-07 0.0000000000000000e+00  1.5916852285465037e-04 -1.1752986955668733e-07 0.0000000000000000e+00  2.0602627347809802e-04 -1.1133376506241282e-07 0.0000000000000000e+00  2.3250691772227784e-04 -1.1623960709001234e-07 0.0000000000000000e+00  2.4111719518638030e-04 -1.6484554939024348e-07 0.0000000000000000e+00  2.3253429130699305e-04 -1.9220030666901845e-07 0.0000000000000000e+00  2.0602517659029038e-04 -1.5249629261248631e-07 0.0000000000000000e+00  1.5915662905997230e-04 -1.8038134292502319e-07 0.0000000000000000e+00  8.8638495046702471e-05 2.0157857518805938e-08 0.0000000000000000e+00  1.0830017746130181e-04 -6.9506344958442028e-05 0.0000000000000000e+00  1.0878230032433927e-04 5.4312797014590364e-05 0.0000000000000000e+00  2.3046380797523761e-04 -5.5816834558782611e-05 0.0000000000000000e+00  1.7778735598946737e-04 -6.4118104047420580e-05 0.0000000000000000e+00  2.1442321285188289e-04 5.7329986946396136e-05 0.0000000000000000e+00  2.1384453749651397e-04 5.7263100964348776e-05 0.0000000000000000e+00  1.2038287233238198e-04 6.1938494152633379e-05 0.0000000000000000e+00  4.3233455964561095e-05 -6.4121932264762788e-05 0.0000000000000000e+00  1.7721638917007725e-04 -5.9338340873618401e-05 0.0000000000000000e+00  1.2411146900673616e-04 -1.1685713590630326e-04 0.0000000000000000e+00  1.7635131341987330e-04 -1.1032697560697722e-04 0.0000000000000000e+00  1.2043036450097183e-04 -1.5708825242933451e-04 0.0000000000000000e+00  1.6541792951764455e-04 -1.4443906669750980e-04 0.0000000000000000e+00  1.0360951513375351e-04 -1.8276174515793864e-04 0.0000000000000000e+00  1.4670512321055573e-04 -1.6341139521343164e-04 0.0000000000000000e+00  7.6972979092559748e-05 -1.9456055631506065e-04 0.0000000000000000e+00  1.1363698981128828e-04 -1.7122604852359201e-04 0.0000000000000000e+00  4.0922473107441040e-05 -1.9223547260804560e-04 0.0000000000000000e+00  7.5636264836261488e-05 -1.6169105787587620e-04 0.0000000000000000e+00  -2.9749554167155929e-06 -1.7369589381578766e-04 0.0000000000000000e+00  1.7357213846201630e-04 -1.3416878381891968e-04 0.0000000000000000e+00  1.7743126461473765e-04 5.9114369504504471e-05 0.0000000000000000e+00  1.7315524932074461e-04 1.1113015725531493e-04 0.0000000000000000e+00  2.0310481999162046e-04 1.0392163978469077e-04 0.0000000000000000e+00  2.9824908238638494e-05 -1.3511162226350081e-04 0.0000000000000000e+00  1.0803764379534160e-04 -1.1702553959868774e-04 0.0000000000000000e+00  1.2488544056545565e-04 1.1053520388146092e-04 0.0000000000000000e+00  1.1460741797416648e-04 1.5541306233814587e-04 0.0000000000000000e+00  2.3094364928337804e-04 -5.4477201130931802e-05 0.0000000000000000e+00  2.0315219153838076e-04 -1.1187789547290916e-04 0.0000000000000000e+00  2.1505904697459419e-04 -5.7501636461363034e-05 0.0000000000000000e+00  4.2938660886434752e-05 6.4163105073635436e-05 0.0000000000000000e+00  1.7599981549820765e-04 5.7879993996167838e-05 0.0000000000000000e+00  1.7201165229218811e-04 1.1069040515512719e-04 0.0000000000000000e+00  5.1138896665594622e-05 -1.8736780475891911e-04 0.0000000000000000e+00  -3.5929847744867843e-05 -1.9435865144602264e-04 0.0000000000000000e+00  5.5031766773118200e-05 -1.2322283343438377e-04 0.0000000000000000e+00  2.0182695067625126e-04 1.0533458148063665e-04 0.0000000000000000e+00  1.5149987292583213e-04 1.5209935470626552e-04 0.0000000000000000e+00  1.1149265825029556e-04 1.5231132764490844e-04 0.0000000000000000e+00  8.5106946821841356e-05 1.8457998657361068e-04 0.0000000000000000e+00  3.8711771978699365e-05 1.7768099597302524e-04 0.0000000000000000e+00  1.0663630348871606e-05 1.9933323465825769e-04 0.0000000000000000e+00  -3.9820162881313812e-05 1.8199894486223294e-04 0.0000000000000000e+00  -6.3580946747416152e-05 1.9521853460807389e-04 0.0000000000000000e+00  -1.1332654547499615e-04 1.6914503447495698e-04 0.0000000000000000e+00  -1.2479688060729827e-05 2.0546574065615511e-04 0.0000000000000000e+00  -8.1067045302407552e-05 -1.6586926527049765e-04 0.0000000000000000e+00  -1.0773859897366825e-04 -1.7817696955391832e-04 0.0000000000000000e+00  -1.3040252255393936e-04 1.7304850866289834e-04 0.0000000000000000e+00  -1.7323420511880069e-04 1.3671423826107037e-04 0.0000000000000000e+00  -1.8263243926122506e-04 1.3531010040342134e-04 0.0000000000000000e+00  -2.1507856772417516e-04 8.9617371847624421e-05 0.0000000000000000e+00  -2.1779460469238053e-04 8.5072546513715157e-05 0.0000000000000000e+00  -1.9631563722069434e-04 8.6934868679955745e-05 0.0000000000000000e+00  -1.7838865612840297e-04 1.2676685232267205e-04 0.0000000000000000e+00  -2.2896611833892518e-04 3.7789631602021877e-05 0.0000000000000000e+00  -2.0637723119724304e-04 7.1468903010744604e-05 0.0000000000000000e+00  -2.0334685484634543e-04 2.5164479870108932e-05 0.0000000000000000e+00  -2.2169694601476293e-04 -2.7465652098624937e-05 0.0000000000000000e+00  -1.5826468809039304e-04 1.0991642632160869e-04 0.0000000000000000e+00  -3.9044486893693062e-05 -9.6530723848984183e-05 0.0000000000000000e+00  -1.4991491948033574e-04 -1.4024841095448254e-04 0.0000000000000000e+00  -1.8633260621093046e-04 -3.8526799892175415e-05 0.0000000000000000e+00  -1.9354744642067608e-04 -8.7906962838440753e-05 0.0000000000000000e+00  -2.3333266365323189e-04 2.4088414592360839e-05 0.0000000000000000e+00  -8.7049610261918838e-05 1.4599505266325944e-04 0.0000000000000000e+00  -1.7859385678852403e-04 4.7985918380276478e-05 0.0000000000000000e+00  5.6463317677214576e-05 1.4857970814032625e-04 0.0000000000000000e+00  -2.2363370775512517e-04 -7.0337577369443882e-05 0.0000000000000000e+00  -1.5723612593981649e-04 1.5960995976796316e-05 0.0000000000000000e+00  -1.2246091580388110e-04 8.7671013523174613e-05 0.0000000000000000e+00  -1.4617575563024600e-04 -9.8059747184427642e-05 0.0000000000000000e+00  -1.4621844924651614e-04 -1.4028322779077219e-04 0.0000000000000000e+00  -1.2303359293649188e-04 1.5778474342990675e-04 0.0000000000000000e+00  -6.1049627527942551e-05 -1.9914406197157374e-04 0.0000000000000000e+00  -1.3239481001757150e-04 1.5057957001207020e-05 0.0000000000000000e+00  -1.8445759087951506e-04 -2.0583472551192339e-05 0.0000000000000000e+00  -8.7948792634251304e-05 -1.4512266207111676e-04 0.0000000000000000e+00  -8.4165918657612849e-05 -1.7800244955249538e-04 0.0000000000000000e+00  -8.0491117182287120e-05 -9.6645386249993084e-05 0.0000000000000000e+00  1.2260492824632180e-04 1.7728801133145661e-04 0.0000000000000000e+00  -1.6540400747075353e-04 -1.4734476033648831e-04 0.0000000000000000e+00  -2.0072345570290066e-04 -1.0045393808783278e-04 0.0000000000000000e+00  4.4582282605104467e-05 1.8347551202943011e-04 0.0000000000000000e+00  -1.7031053149665072e-05 1.6949186366473423e-04 0.0000000000000000e+00  -6.1759357816986291e-06 1.3329810018121557e-04 0.0000000000000000e+00  -7.6925902785265394e-05 5.8822305985294746e-05 0.0000000000000000e+00  -1.1851743826095637e-04 -1.1977648775335485e-04 0.0000000000000000e+00  6.1962667487669453e-05 1.4564860178016732e-04 0.0000000000000000e+00  -1.3624948483957408e-04 -1.6608968902600912e-04 0.0000000000000000e+00  -2.0413259175143900e-05 1.1624142832939741e-04 0.0000000000000000e+00  -4.7305791367653911e-05 5.1768101020863654e-05 0.0000000000000000e+00  -2.7750066927557697e-05 1.9506270489711214e-04 0.0000000000000000e+00  -6.0994071078726617e-05 -3.6968770456054305e-05 0.0000000000000000e+00  -1.8380686093358610e-05 -1.7625349587254715e-04 0.0000000000000000e+00  -1.2522304910027470e-04 -5.6673308994140839e-05 0.0000000000000000e+00  -1.7928984778581091e-04 -8.6019577298183871e-05 0.0000000000000000e+00  -2.1702935601879250e-04 -4.0439308702140866e-05 0.0000000000000000e+00  -2.3114330217280458e-04 -5.1506156072242266e-05 0.0000000000000000e+00  -2.3970444739936995e-04 -6.5007642055649948e-06 0.0000000000000000e+00  -1.0447224961906842e-04 9.7682826189665175e-05 0.0000000000000000e+00  -1.5100924968301714e-04 1.0411077665433628e-04 0.0000000000000000e+00  -2.1145989108386099e-05 -1.9658212890020051e-04 0.0000000000000000e+00  -9.0493877008331560e-06 1.6162548208391715e-04 0.0000000000000000e+00  9.7216268691911154e-05 1.8236433541542717e-04 0.0000000000000000e+00  2.1410623915636234e-04 -5.4969942323553181e-05 0.0000000000000000e+00  1.3993470745170380e-05 -6.7435902402308552e-05 0.0000000000000000e+00  3.8159168532444983e-05 -2.0149678410031848e-04 0.0000000000000000e+00  -8.0116617159079785e-05 1.4124463312590091e-04 0.0000000000000000e+00  2.3130998693419400e-04 5.2192952339170127e-05 0.0000000000000000e+00  1.5567747305249559e-04 1.5049896582197063e-04 0.0000000000000000e+00  1.8189536044047733e-04 1.3546160316842167e-04 0.0000000000000000e+00  -1.8584255386386994e-04 -1.2396304215867433e-04 0.0000000000000000e+00  -8.0449532840041012e-05 1.9401903373017490e-04 0.0000000000000000e+00  -1.3501687245073227e-04 1.6818452612538419e-04 0.0000000000000000e+00  -1.4608103503809335e-05 -1.3791246864644740e-04 0.0000000000000000e+00  -6.7123669331583391e-05 -2.6679825618807153e-05 0.0000000000000000e+00  -1.3492760276892179e-04 -4.0985726240601654e-05 0.0000000000000000e+00  5.5623227378716766e-05 2.0007251561168665e-04 0.0000000000000000e+00  6.2611131975798436e-06 -2.0494787863327708e-04 0.0000000000000000e+00  1.3947124427401826e-04 -1.3540749986658564e-04 0.0000000000000000e+00  2.3153312774529223e-04 5.2875505613710362e-05 0.0000000000000000e+00  1.2026111422403494e-04 -6.1536996144554365e-05 0.0000000000000000e+00  -2.0408659525756860e-04 -1.1040283414846606e-04 0.0000000000000000e+00  -4.7471505223724625e-05 -1.4649825908626688e-04 0.0000000000000000e+00  1.2844673991145261e-04 1.0725304083106861e-04 0.0000000000000000e+00  -2.1450308612185973e-04 1.7298211106093692e-05 0.0000000000000000e+00  5.7708238109009591e-05 -1.6180928068631537e-04 0.0000000000000000e+00  6.7079636616820335e-05 1.0987824963397187e-04 0.0000000000000000e+00  3.4313042889831133e-05 2.0004833506243218e-04 0.0000000000000000e+00  -1.5550097902465338e-04 1.3335549734182580e-04 0.0000000000000000e+00  2.0405185159533271e-04 -1.0041543816448539e-04 0.0000000000000000e+00  -4.4769783639778123e-06 6.2000137731750988e-05 0.0000000000000000e+00  1.8865826706310508e-04 -9.9643085900520754e-05 0.0000000000000000e+00  -2.3384854727431719e-04 4.9802956553557549e-05 0.0000000000000000e+00  -1.2476710210586003e-04 -1.7690209991777381e-04 0.0000000000000000e+00  -7.6631407809021583e-05 -1.9327634826970508e-04 0.0000000000000000e+00  2.1657386083687630e-04 9.1241331282271082e-05 0.0000000000000000e+00  -6.1360899851928724e-05 1.1266683339449738e-04 0.0000000000000000e+00  7.6403142403830488e-05 1.0239335011409431e-04 0.0000000000000000e+00  -9.6023994693353765e-05 1.7556161424153256e-05 0.0000000000000000e+00  -9.0019267642942199e-05 1.8270330774971863e-04 0.0000000000000000e+00  2.0764305096399266e-04 -9.3585365355772226e-05 0.0000000000000000e+00  -1.6803860712240055e-05 -2.0485292433749031e-04 0.0000000000000000e+00  -1.6885786171543971e-04 5.8005894140849195e-05 0.0000000000000000e+00  -1.2098653162323537e-04 5.1207585381233131e-05 0.0000000000000000e+00  -7.0839640438911570e-05 1.7173375570264703e-04 0.0000000000000000e+00  -1.6980039097917024e-04 -1.4665336219171833e-04 0.0000000000000000e+00  -4.4924625420385393e-08 9.2693982174874747e-09 0.0000000000000000e+00  -8.8404768208483943e-05 -9.0509698578373747e-05 0.0000000000000000e+00  1.3352044220915797e-04 3.5300226501678969e-05 0.0000000000000000e+00  -5.4065381881912931e-05 9.5833251695107616e-05 0.0000000000000000e+00  1.0051346042126258e-04 -6.7911275125762038e-05 0.0000000000000000e+00  -6.8175466298021250e-05 1.0344401618652734e-05 0.0000000000000000e+00  -1.3735359429658311e-04 1.8037998212600815e-05 0.0000000000000000e+00  2.6550615535667567e-05 1.0810556845945856e-04 0.0000000000000000e+00  9.4875605583469441e-05 -5.3794394329425633e-05 0.0000000000000000e+00  -7.5323878743187886e-05 -1.0415965086997586e-05 0.0000000000000000e+00  7.0506557693799336e-05 8.0911563223169680e-05 0.0000000000000000e+00  -2.6157227351561904e-05 -9.2669422161010593e-05 0.0000000000000000e+00  2.2563362339744262e-05 -1.3012707775374678e-04 0.0000000000000000e+00  5.7554347691135314e-05 3.6234162657874121e-05 0.0000000000000000e+00  -2.2039014633919311e-05 -1.0354148771464474e-04 0.0000000000000000e+00  5.1080320690705130e-05 -1.3043133691659591e-05 0.0000000000000000e+00  -9.2794787210291873e-05 9.9690972466325283e-05 0.0000000000000000e+00  -1.3639250676494228e-04 -4.7594576049587383e-05 0.0000000000000000e+00  1.3992856693710655e-04 5.8823783888238087e-06 0.0000000000000000e+00  -1.9796726901358792e-05 6.4295953994306546e-05 0.0000000000000000e+00  2.7834521856868687e-05 1.3764865532058296e-04 0.0000000000000000e+00  1.1710273804496513e-04 8.2320653265054123e-05 0.0000000000000000e+00  1.1403308002450361e-04 1.1330320061236411e-04 0.0000000000000000e+00  -1.3484924255333956e-04 5.2939876450683313e-05 0.0000000000000000e+00  1.6204478647607323e-04 -4.2916437415455243e-05 0.0000000000000000e+00  -3.4181767954735194e-05 9.3918657198434173e-05 0.0000000000000000e+00  -1.5649841727939266e-04 -4.7609443183529308e-05 0.0000000000000000e+00  1.5510909152322160e-04 8.0989635476056420e-06 0.0000000000000000e+00  1.1243943371957421e-04 -1.1181246837770479e-04 0.0000000000000000e+00  -1.4737923339289805e-04 4.2324808903669724e-05 0.0000000000000000e+00  3.6318831719397639e-05 -4.7035375780041706e-05 0.0000000000000000e+00  -5.2316951301780004e-05 -1.4049780757424433e-04 0.0000000000000000e+00  -5.0265091316506203e-05 -1.4689915024529928e-04 0.0000000000000000e+00  6.0577921700215506e-05 -1.3131070554451698e-04 0.0000000000000000e+00  -1.2978519598578965e-04 1.1045181607995070e-04 0.0000000000000000e+00  5.1506091741132192e-05 -1.2857067225244956e-04 0.0000000000000000e+00  -3.6249142757043747e-05 1.4882766922993203e-04 0.0000000000000000e+00  -9.2475307583109005e-05 -5.9241019531830672e-05 0.0000000000000000e+00  1.5122784893503580e-04 7.2699642465148630e-05 0.0000000000000000e+00  2.0349114966770974e-05 7.1469564054998160e-05 0.0000000000000000e+00  6.1499034275769562e-05 3.8670577482490796e-05 0.0000000000000000e+00  </DataArray> 
</PointData> 
</Piece>
</UnstructuredGrid>
</VTKFile>