<?xml version="1.0"?>
<VTKFile type="UnstructuredGrid"  version="0.1"  >
<UnstructuredGrid>
<Piece  NumberOfPoints="201" NumberOfCells="657">
<Points>
<DataArray  type="Float64"  NumberOfComponents="3"  format="ascii">-0.03859492431068117 -0.02345796709268668 2574.330367652597  -0.05385298074977424 0.3643434121838472 -2574.328506230656  136.8930919465977 0.4947026306404217 -2447.35345754937  259.4102551479277 0.6189807992080616 -2079.640457462627  355.2486952912437 0.03587720315871189 -1508.980153758542  415.7535950606732 -0.1265432804983464 -792.4671962864473  436.6229067769615 -0.2630491522731024 -0.03930154900249765  415.7106465552832 -0.04443117402548954 792.4979205662886  355.1576125494288 0.2618233553589976 1508.707162327399  259.4615362800996 0.1563311884954063 2079.465562596828  136.9369225972879 0.05166820979450103 2447.30683505142  173.8324166823941 -871.6218492914293 -2239.244460048308  172.4322307588883 677.2296571767408 2293.687574225884  417.28027796742 -793.0799926192692 -380.5311393597141  302.7962256493698 -854.1920653861284 1715.061885832772  380.4762003814695 798.1968437685696 1079.925485834158  378.9406869733714 798.2111424037838 -1098.925483891871  193.9351425154462 781.2087967008998 -2209.124073353619  66.97926540078039 -777.1851848896973 2450.197951483507  300.5604199168716 -787.2740555479276 -1750.864956718074  211.5138310660646 -1536.460786781925 -1816.19565257812  312.8193530134562 -1517.29147814293 -1249.249237852681  217.3160102350162 -2157.401678569107 -1205.686277564189  304.533239268796 -2036.904530139293 -592.7856090138279  193.6174356576383 -2569.427111096151 -505.9424098966467  273.7396175109285 -2315.281882711465 127.6255003419517  145.483299174673 -2741.447459706465 231.2239860660747  209.4044942256606 -2384.951760530333 874.6478947265559  75.97668497439479 -2662.095455947259 932.7252846524457  133.8216972016647 -2170.295039724718 1535.204042436907  -5.258809544737525 -2327.309077783593 1540.288182786426  316.8219388376406 -1885.520628548793 734.7940131965822  300.5707714156536 787.2120433907832 1750.956833334887  306.7188585543016 1526.333893393953 1292.375897148036  369.791065615378 1471.828426109375 584.1026301600932  49.79751864971904 -1727.100667526691 2052.269197047445  181.2166101193949 -1519.459138945049 1932.122318024381  211.379538306689 1448.391036116814 1871.760999974743  205.4729399651834 2122.087135587894 1315.846891380401  418.0012150183283 -773.4739430894019 380.3997706867378  372.3365244425717 -1591.819559310467 44.13869920543092  381.2395408307066 -799.0222400348596 -1069.491994094958  66.94293254658413 777.5697772110691 -2450.489608189464  297.723883438915 767.2072522902957 -1774.985708814551  304.3606909090983 1517.623412679532 -1318.387098152778  94.15356493654765 -2582.87444889095 -1049.863313341903  -66.08206740026033 -2693.685021854942 883.2658704988451  90.52505084990909 -1567.836326584108 -2105.644486343858  367.2508121544962 1489.157239503329 -603.7869454478257  278.6051535238905 2136.459563705988 -730.390058781146  198.1356236780398 2067.856712729173 -1415.429852253044  157.9732160954614 2575.628138738978 -790.7103125346  69.5826806285168 2410.397555016358 -1381.258880158613  20.63975016623785 2782.266914329143 -719.0518946501078  -71.52609653664638 2480.905709040673 -1275.657466008719  -118.4532518881758 2736.56329497669 -542.0310090527435  -206.8907787835012 2341.972402098979 -976.1839040562651  -22.86059171883984 2895.671928035089 47.98359497148631  -144.3086077505041 -2242.703861942607 1418.910808112388  -199.9708631536604 -2489.180411612032 703.4488507366135  -243.1008503512342 2440.594473434134 -263.9826574951435  -317.3436697254048 1916.814769722937 -666.7335783954284  -337.6599468223536 1916.283174272054 59.59489684898971  -391.3205330228547 1269.72581719162 -414.8826265891661  -396.3165824709221 1205.74059170005 386.9936234027911  -348.5351274906708 1197.876249318283 -1182.203659692421  -324.2045668442278 1770.155811377577 836.0533187132332  -411.1287836442669 527.2757406029173 -751.7757967369288  -366.3181130748093 987.9631107625549 1136.887637806137  -351.355937122996 336.384193166088 -1513.748931683824  -393.4562770374636 -381.8622117341152 -1079.859855454939  -275.3139607237104 1477.035604674875 1548.470571066693  -61.61136859364561 -1194.452806855448 2320.502365274356  -269.6141505354656 -1929.966481921591 1153.777307875142  -316.4320637395097 -513.2527710217777 -1729.331284257247  -343.1302007365643 -1209.022478262688 -1227.074135318771  -420.0983647258849 334.8701873360356 648.4167239691054  -150.1968703489008 1931.589036112274 -1723.411633823677  -301.8318829400727 631.2981827421847 1790.499579322439  96.72866149143786 1948.484044212548 1829.731910172828  -406.6898858837515 -997.5165844354636 -435.4352432140321  -257.0664714414402 204.3295816119787 -2082.645980473122  -201.4693622302488 1118.160110488269 2070.432100917822  -248.700930463349 -1290.105285059024 -1804.677879201813  -262.2038555899803 -1926.217342558656 -1213.614621520779  -222.1022704509969 2164.892523820626 1166.232502903769  -115.0315703237438 -2803.603906105991 167.4939120081411  -211.3260223035742 188.1388163734846 2253.502234625881  -310.675274107777 -273.5094886289319 1803.962798396053  -151.8516061654198 -1919.206888930411 -1729.204484870641  -153.7670205731956 -2452.020666693631 -1074.855641170147  -129.8611457764485 -1211.747823259559 -2217.337712920493  229.5498176877293 2510.699055047655 -73.30461588709215  -305.2970422882496 -2077.311351145866 458.5069095582177  -363.2326413637575 -1408.156056071027 798.6084405840592  81.2421623236139 2513.6354734237 1205.285425393179  -29.24314900882863 2262.900756108138 1606.349969763727  -10.00179281354195 1701.739885181789 2087.629773745014  -120.2117854985335 719.3871903026144 2394.647151238659  -201.5313728233627 -1569.85591250386 1831.152654198424  105.9705690802103 1905.242587856148 -1848.85611918051  -252.5964400625073 -2331.114550912547 -565.8349857683057  -33.14536970410387 1457.333335909491 -2220.350122004726  -72.97296688671592 624.4269486249655 -2478.650178444221  -50.75811500506677 2706.94778459849 883.2055195271489  -93.78428034565083 -442.7660784841203 2484.951948218393  -32.77056619269509 -2370.672691024107 -1476.261057221737  -202.3435313997059 -713.3531972249424 2200.46838926359  -311.4963733534079 -1159.083798779116 1517.011894703441  -384.4092281633539 -561.3018176695451 1136.324723661747  -419.8758795583599 -731.8839429627401 360.153914940671  -434.6720929500299 -95.49789502228717 -222.6924887206626  -171.0937137354207 1242.674397303824 -2107.865151871207  -259.0063498990866 1381.910513332598 -1700.627207175515  -38.80378607361624 -2727.365877442556 -851.5528951025171  -15.31404263285356 2135.193460488778 -1744.671206545933  180.9155410242076 2555.755445653409 678.2993705560096  378.9414312980347 -763.6673454111038 1118.877427108656  22.24109711170462 -815.0236091410554 -2468.03747837454  72.20586219452457 -2829.631740956647 -401.0938752657256  -136.7437218431698 1848.611647935228 1827.799015021651  418.850679851057 743.3005881358082 -388.5005566105189  286.633996066551 2118.511150594085 665.5069184882997  336.3109107848304 1927.734859467415 -29.45673633895686  -339.6800288501997 -1742.914974089709 -652.2263862352346  -150.9586570176365 2732.279156012841 202.5002500677503  -250.875799858144 2365.187117758994 474.2001952056587  -24.30347862109307 -1764.523464597814 -2042.017190120307  -103.4029674418753 -321.6941325913866 -2486.667488372201  -217.4217370226204 -518.7272385072412 -2192.932615437413  105.4937806743055 2820.452597710466 -133.2006204626881  12.43363291608592 -2880.888633707078 289.4820372147607  246.9293056374079 -1839.286462340146 1405.698423807844  419.5438674201522 752.9052075985998 344.8168352172656  194.0799315947899 -775.0280122683261 2210.170618394625  -374.4586704938848 -1568.765061700812 63.56572146731193  -80.40837262475837 -1907.00878420748 1888.868935449462  217.1167488298192 1404.046313223432 -1875.23103298714  -375.7325370775864 234.4664645228222 1307.401305556246  101.2830613493045 -2154.675476522279 -1629.347984080874  109.4797409352269 1386.889831446261 2174.184803932283  65.03499077407075 2804.705338831695 547.1974899075103  -277.9817815710362 1828.71738309761 -1212.468030470249  369.7642419114624 -1417.110770537099 -672.865639178229  -6.805073552202447 749.7881136161213 2487.275639481818  335.572131329102 -1374.21821430363 1169.351965828819  -425.2252318940438 704.7541001948695 -58.37131730051496  -233.9293289819649 -2495.693284770262 25.00960685636669  -143.802572110475 -2714.265301303715 -431.0950625525588  395.5939907039094 1302.180126791934 -17.91503812630547  -99.74682401080129 1422.671701408367 2171.613221304606  123.9621855040582 1292.013869024956 -2193.532338471336  -149.5039328444292 212.7346432798062 -2415.300038978879  -165.8509234939965 2541.570505529921 825.2671872129936  375.611097688983 -1318.750311629543 707.4756969867003  -31.12884876668522 -2878.807934245489 -261.5787451421934  -283.5315457768357 757.0130384273969 -1856.939872904168  -194.3289415566631 639.3777811219124 -2242.675052772442  -126.4148382471637 2331.577518279473 1359.750700053864  -314.8265188506984 -2076.17372852259 -144.7562485625784  -0.05990186502263928 -0.007098089359984246 -0.08994956388399437  -140.2759116386587 -1155.744891647108 71.23253875762278  210.6165005813382 452.062127797057 -11.87890760246609  -84.60744609530107 1212.673282008308 566.4355406675627  157.6845423349428 -861.4547656670896 514.5517616409136  -102.5274448412541 125.4924035690504 -1142.410233971583  -216.3519899483205 230.2876893480358 0.8857992566552272  41.80573887419236 1370.693304612608 -492.3054919273945  146.804637756621 -676.9928284056209 -769.1440842925805  -113.9745168522739 -128.3900948679074 1108.002668223691  109.8662839982125 1019.643118759253 894.9733767890591  -40.65766741140104 -1161.997633139988 -972.9384104084977  36.60708243429859 -1679.192278770619 4.723703805628038  87.26627665342374 445.5
[...]
<PointData  Vectors="Forcing"> 
<DataArray  type="Float64"  Name="Forcing"  NumberOfComponents="3" format="ascii">-1.4185886653736652e-05 -5.9685826277336973e-07 -2.2778873968210042e-05  -1.1110838525172812e-05 -2.7496500590120406e-07 2.4792259503782652e-05  -3.6185539372528811e-05 4.1547297317300104e-08 2.3355217645096179e-05  -8.1059374957588142e-05 7.7493835893974494e-07 2.1876222483536252e-05  -7.6634811705489253e-05 -1.5712818805069995e-07 1.0288017935591965e-05  -1.3153767867432874e-04 1.4895926676606851e-06 8.1009694991070315e-06  -1.4126937703336966e-04 -2.0132055692222479e-07 1.2758624274465466e-06  -1.4126167378716232e-04 -1.5957146734515954e-06 -6.8831301323255290e-06  -8.5664042045043769e-05 3.9461001392915179e-07 -1.1747158391942184e-05  -7.7219836312615359e-05 1.4674827388380140e-07 -1.9882080427386234e-05  -3.5238846264876897e-05 1.7123162622851803e-06 -1.9356398643787897e-05  -4.7052607721813217e-05 -1.4685907829706956e-05 2.0470005112729446e-05  -5.2318054765227770e-05 1.0572927200305730e-05 -2.3560774565421532e-05  -1.1950917951250403e-04 -1.3886534123945785e-05 2.6827459953489545e-06  -8.1871503239330933e-05 -1.4619886532500783e-05 -1.7472363016993179e-05  -1.0505775012290537e-04 1.3921501682993719e-05 -1.1067882492426275e-05  -1.0660609114028697e-04 1.3281831501035078e-05 1.1603982876654584e-05  -5.5348886147546610e-05 1.3183760902717462e-05 2.2652199432942348e-05  -2.0199968533993784e-05 -1.2807650431527587e-05 -2.2714538990273440e-05  -8.6432779526206946e-05 -1.2378916247499530e-05 1.7306272270226652e-05  -6.4879660758011986e-05 -2.4530188369358764e-05 1.8813611388717408e-05  -9.6857320236832316e-05 -2.3487079380698436e-05 1.2277015201988951e-05  -6.7426513490291318e-05 -3.4122322542550831e-05 1.0944345060579863e-05  -8.0714487837798627e-05 -3.4815686885567147e-05 4.2524956831752444e-06  -5.2149709994334407e-05 -4.2895590082748535e-05 5.0392890338802846e-06  -7.3464029406033489e-05 -3.8863636602128255e-05 -2.5820509581586124e-06  -4.9559774190318737e-05 -4.3813094133907336e-05 -2.7533017727125644e-06  -5.6251026360635931e-05 -3.9055161939981428e-05 -8.8802695663879930e-06  -1.8052638023927083e-05 -4.4844365737481749e-05 -8.7297392965793865e-06  -2.7545369525401023e-05 -3.9537476066773023e-05 -1.0289115765265864e-05  3.6772654769777323e-06 -3.7208717573864268e-05 -1.4934848048653724e-05  -9.8909235516540987e-05 -2.8764972376713251e-05 -8.1596060763703476e-06  -8.5926289979185416e-05 1.2849841709367875e-05 -1.5441020922957059e-05  -7.9528248396984081e-05 2.6356898935211008e-05 -1.0933868613515187e-05  -1.0567060730684275e-04 2.5868029893434631e-05 -7.1599967255979747e-06  -1.2236674403793777e-05 -2.7261774881691868e-05 -2.2846622922129187e-05  -4.9828335931831497e-05 -2.5232855741563597e-05 -1.9441734375298740e-05  -7.1693441191647810e-05 2.2786818800683365e-05 -1.8594283195929044e-05  -6.6392020422188460e-05 3.4500866751288430e-05 -1.1098297799569529e-05  -1.1107078784912984e-04 -1.5372639275052356e-05 -3.4574902109408234e-06  -1.0882800699353591e-04 -2.6451727587944739e-05 -1.1309900779821817e-06  -1.0954908855713851e-04 -1.4500191626135871e-05 1.0838284226645887e-05  -1.7652350490436753e-05 1.1203781465082216e-05 2.7685924710898731e-05  -8.0658001441783514e-05 1.3346789494747884e-05 1.6114171103883143e-05  -8.2301704574258268e-05 2.6138088699554615e-05 1.1605501764017017e-05  -2.3933524772016778e-05 -4.6786580496136934e-05 8.9375228911846080e-06  1.2262321757556831e-05 -4.3697410899775961e-05 -9.4147553126687026e-06  -2.6496492173344352e-05 -2.5909430362423933e-05 2.0169138116237763e-05  -1.2197844331142036e-04 2.4689488620972564e-05 7.2208422987527161e-06  -7.7642155876035996e-05 3.8310115074570733e-05 5.9194204042389839e-06  -5.4338283913920511e-05 3.3751377568607912e-05 1.3661827559716364e-05  -6.1597665502093632e-05 4.1446886950726605e-05 8.3132465038557541e-06  -1.9592800304678493e-05 3.8789193714479107e-05 1.4834825949576451e-05  -8.4528757528087345e-06 4.1917765475062851e-05 8.9860596963004864e-06  2.2048363964731319e-05 3.9842911073188168e-05 1.1505401345640665e-05  3.0924304630171604e-05 4.6419184738177261e-05 4.3453648060984409e-06  6.0640513232537628e-05 3.7141320761959802e-05 1.0736801788836112e-05  6.3491735063383790e-06 4.6386072688893519e-05 -8.2468450949985293e-07  4.0230081189092653e-05 -3.7326244956224502e-05 -1.2432902116823773e-05  4.5187372335437119e-05 -4.2032282130337850e-05 -6.7229439484602237e-06  7.0863204536159523e-05 4.0589266563775495e-05 2.6645752148825350e-06  1.0208312345004891e-04 3.1665402827491296e-05 6.6387967533465926e-06  7.0486042142146464e-05 3.6000331642447792e-05 -1.4851054076807324e-06  1.2461578324472078e-04 2.0423736764933856e-05 3.5983463853765091e-06  1.3029862972587663e-04 1.9710679801593590e-05 -4.7506578269367331e-06  8.4206771048699674e-05 2.2879711472503422e-05 9.2642578051758073e-06  9.9626214729593764e-05 3.1927271804985719e-05 -7.4683449575303261e-06  1.2537095698132334e-04 9.5035735798446451e-06 7.5387857944903064e-06  1.0587535168259201e-04 1.7331901023702813e-05 -1.0706135655264008e-05  1.0598622046286766e-04 6.9670632463996789e-06 1.2588908757094787e-05  1.2425720661848568e-04 -6.9159931642060879e-06 9.2126111497573552e-06  7.7246880690319878e-05 2.4844263697296839e-05 -1.3392092347531445e-05  2.4627157628397849e-05 -2.0290272638706242e-05 -1.9885391521938805e-05  7.5346072873704107e-05 -3.1533482002024730e-05 -1.1401160963227000e-05  1.0668272631494603e-04 -8.0864704521209448e-06 1.7265316324551108e-05  9.6552159646518763e-05 -2.1413027035298753e-05 1.2220950676284753e-05  1.2844602101101397e-04 7.0646194613815954e-06 -5.4310278079638921e-06  4.8710498610391852e-05 3.0733720895513849e-05 1.7177656073708644e-05  7.6739281867321555e-05 1.0613285777941640e-05 -1.2702589455729071e-05  -3.5038635815842032e-05 3.0928928069347873e-05 -1.9653378067210886e-05  1.2353015487724138e-04 -1.7546870835745523e-05 3.3321882273898950e-06  8.6119278389938590e-05 4.4881176184934158e-06 2.0336495522927795e-05  6.8962815213780115e-05 1.8996648225327185e-05 -2.1342358679105358e-05  6.4440694770211373e-05 -2.2352594154410193e-05 1.7361269575612658e-05  7.1616515035134807e-05 -3.2690022569810909e-05 1.3704824275794311e-05  7.2527853763861981e-05 3.6777995158746618e-05 -1.0038311710713530e-05  3.8399667440398986e-05 -4.5945103302655358e-05 -2.4324264822856143e-06  6.3476490407176253e-05 3.1820326376695379e-06 -2.0054544977215555e-05  1.0375628446105408e-04 -5.1814656880263761e-06 -1.7452249721763184e-05  4.2678722517554663e-05 -3.0843355253675668e-05 1.7355076232798515e-05  3.8687309605013262e-05 -4.2811896237450262e-05 9.0673331537223538e-06  2.9880345026445282e-05 -2.0960657499247409e-05 2.0504446378541215e-05  -6.2012252319153122e-05 4.3762929870506934e-05 -8.5447407968347981e-07  8.9886753203991486e-05 -3.5369053068154898e-05 -5.7969720448387756e-06  8.6632620966567439e-05 -2.7048950616107738e-05 -6.5381391401836404e-06  -3.0838285558714362e-05 3.9780023429978649e-05 -1.3781929943152166e-05  3.9109644337804252e-06 3.6086476385609129e-05 -1.6854107991867000e-05  7.2862801847120564e-08 2.8420463471511873e-05 -2.2174825971080663e-05  4.1577636051710994e-05 1.1094961866385429e-05 -2.7822666047696216e-05  6.7218202646630534e-05 -2.5541690069781226e-05 -1.9746724190053710e-05  -3.7332367275164967e-05 3.0368183444130757e-05 2.0653207350728307e-05  9.0171770262265864e-05 -3.7268504336470687e-05 7.9221484453740855e-06  1.2844723519637454e-05 2.3790492113563388e-05 2.0837582004508674e-05  2.3233769286508582e-05 7.9992328755997556e-06 2.4985871793535937e-05  1.6932977730824383e-05 4.0555203210760008e-05 -9.6606481843916627e-06  3.0160314587479187e-05 -9.3530599397996481e-06 -2.8209283876676906e-05  1.1251152913251923e-05 -3.9367536581480621e-05 1.4145762411731315e-05  6.3057373335595677e-05 -1.2983456654291600e-05 -2.0992574463573361e-05  7.7408083568408651e-05 -2.2147729395630900e-05 -1.3696342090574056e-05  1.0071570466832807e-04 -9.8817756908085494e-06 -9.1995425233348075e-06  1.0439110533398383e-04 -1.2889118042445388e-05 -3.7636761908069118e-06  1.3726703559144098e-04 -7.5857204832277881e-07 3.0445544762759587e-06  5.4029167213866974e-05 2.0483736204074364e-05 2.2235565813695864e-05  7.6807563436624409e-05 2.1860205817146777e-05 1.6287487376426433e-05  5.1636642550616901e-06 -4.1796469189192643e-05 1.1097199523543277e-05  1.1576948668588817e-05 3.4269645502637582e-05 1.9142514199253777e-05  -5.9541907524433069e-05 3.9726386692332193e-05 -7.0444766954495152e-06  -1.1932313483079744e-04 -1.2944210848274739e-05 -9.7546302371665555e-06  3.5431825432852298e-07 -1.4567541845078034e-05 2.0881925355176875e-05  -1.7657104216595091e-05 -4.4188756400914720e-05 4.9230930512070951e-06  4.9986268091527838e-05 3.0937507587393001e-05 -1.9126242779472584e-05  -1.3413255629052148e-04 1.2820109449901535e-05 4.4965757354918975e-06  -7.9894773774084700e-05 3.6690623948684247e-05 -6.0197145678531910e-06  -1.0934493714538896e-04 3.0634276826412296e-05 -1.8473517906332182e-06  9.7448947458273071e-05 -3.0678009433560609e-05 5.6292930555240986e-06  5.6454230541981276e-05 4.2713629361396571e-05 -1.8616516518982627e-06  6.2688983468725342e-05 4.4266021115788635e-05 -3.6566285789452976e-06  1.1992791396621489e-05 -2.7802437491111737e-05 2.1754501037991368e-05  2.3506533263885339e-05 -5.0084316846001893e-06 2.5048526978743501e-05  4.9843767143201011e-05 -8.1976887879707154e-06 1.7406441759802799e-05  -3.4319446002722101e-05 4.4084604344095221e-05 2.0684550687882821e-06  -1.4326556662046599e-05 -4.4411277848665901e-05 -3.8727583116393596e-06  -8.6861286352793576e-05 -2.9907992746296539e-05 -1.4741230416927615e-05  -1.3435568427972995e-04 1.2496204239726126e-05 -2.9591830042888151e-06  -5.8101733932073378e-05 -1.3137969056943838e-05 -2.1708253403028808e-05  1.1259568273206473e-04 -2.7383505137285301e-05 -4.6437799363843468e-07  2.0185378207759734e-05 -3.2121068949801082e-05 -1.8996929024967858e-05  -6.1933355085463682e-05 2.3188794421591081e-05 1.7724188385038365e-05  1.1937534974567285e-04 4.5482703539585699e-06 -1.2631214984498158e-05  -2.7347153020426667e-05 -3.8020527913084577e-05 1.3093158736340421e-05  -3.2573358901262843e-05 2.2632089214377771e-05 -2.3688855114500043e-05  -1.9172139483776894e-05 4.7641203643888062e-05 -5.5193434281642306e-06  7.4801261020670712e-05 3.1050696656718691e-05 1.2678748602630331e-05  -1.1157289860243990e-04 -2.3549226495482852e-05 4.1838586015120830e-06  -7.2499731139654145e-06 1.1884524559134651e-05 -2.4449652990029564e-05  -1.0337659163403534e-04 -2.3836701221126724e-05 -1.2634507084295426e-05  1.3434630449781439e-04 1.1640479455079710e-05 7.9237042828117270e-07  7.4470411873951405e-05 -3.8709606462315959e-05 -7.5135769903066812e-08  4.0720259330546041e-05 -4.5497366525493077e-05 5.4403611058484757e-06  -1.2711804443502837e-04 2.0977870243746398e-05 -1.1456190753410673e-06  2.5320866679540297e-05 2.7825191722674742e-05 -1.8842939594921335e-05  -2.6596419088175778e-05 2.0929930076488860e-05 2.1477891189672448e-05  6.0354610357906041e-05 5.6937122985489321e-06 2.1897991040154571e-05  5.6462896955826476e-05 4.1270785019302455e-05 -7.0381339947709167e-06  -1.2780508538389054e-04 -2.2109153355634257e-05 -7.0552979860105762e-06  1.3709117534761631e-05 -4.6214446718870122e-05 9.9938640457625423e-07  7.3004614760641815e-05 1.3735317885817102e-05 1.5843372599970135e-05  6.3809303227476275e-05 1.0653549095619270e-05 2.5653328479314170e-05  4.6541567733299995e-05 3.6340119794606188e-05 -1.3814088552984232e-05  1.1147658845997976e-04 -3.1654028536157790e-05 5.9086483672124829e-07  4.0774806368606795e-06 2.6498534239718775e-06 -8.2813967857054477e-07  6.1066869428013011e-05 -1.7506521302888309e-05 -1.4945735045990375e-06  -9.9568832760088907e-05 7.4458210781848763e-06 -8.1074673992314845e-07  4.5074517245964067e-05 1.7038574283459263e-05 -8.9109913225584797e-06  -6.8438143235604852e-05 -1.2724484829538105e-05 -6.8119506714574237e-06  3.4507870263275980e-05 8.7999825721036695e-07 1.5214707953060917e-05  8.6050608242676797e-05 3.2407287358102708e-06 -9.1877267601693566e-07  -1.8836145708359763e-05 1.8333793949429281e-05 8.9871700055899132e-06  -6.2602001084320372e-05 -9.5450377039169159e-06 8.6726085834998258e-06  4.7976799550586623e-05 -8.3851622350677577e-07 -1.4442551902639856e-05  -5.3886424779178661e-05 1.3338927618788032e-05 -1.5055810714354870e-05  1.9143675529623348e-05 -1.8431484145355337e-05 1.0707081478825197e-05  -1.4271383142583598e-05 -2.6713139089295840e-05 6.2266436409036835e-07  -4.0189835702703705e-05 5.3936778713589984e-06 1.9683634413220658e-05  1.8054717651608228e-05 -2.1001268055977315e-05 -1.2638236147477198e-05  -2.8254789428673413e-05 -2.6011747667831402e-07 -1.9123556005624039e-05  5.4203484955593216e-05 2.0009104295976845e-05 5.6799538555849430e-06  8.6731889690287527e-05 -8.4104850902857407e-06 6.6363184503944693e-06  -8.3542392267427735e-05 1.7395791358732362e-06 -1.2010558825378282e-05  1.1873272439330520e-05 1.0330757341736447e-05 -2.0946241299684731e-05  -2.2928548923785639e-05 2.3875090268799367e-05 -7.5774481682328814e-06  -7.7546337995708467e-05 1.4562482091538789e-05 1.1428458185250171e-05  -6.8980907575654773e-05 2.1715769510450516e-05 -7.9195499224136497e-08  9.0163247706453707e-05 1.0559960747457559e-05 -1.3147642276871780e-05  -1.1573954182482582e-04 -8.1967497601206021e-06 1.4829234094856670e-06  1.8749710913180822e-05 1.5283614820047696e-05 1.8803529866601478e-05  1.0438560464643478e-04 -9.1110343909071428e-06 -7.8204892873764533e-06  -9.9332506409186412e-05 9.5234775691972530e-07 1.0903765527033579e-05  -8.0542468576518667e-05 -2.0579796113729150e-05 2.3447824851276105e-06  9.6914021002165109e-05 8.3456664024656999e-06 1.1199581202182699e-05  -2.5098965042730470e-05 -8.7462429643529711e-06 1.8369497776980981e-05  3.9935633885838150e-05 -2.5436989028707177e-05 7.5804877536167811e-06  3.5270272044940888e-05 -2.6917022357835028e-05 -7.2185210173185402e-06  -4.1746380077819339e-05 -2.4085361928811279e-05 -1.0371716175806425e-05  8.4931892327481712e-05 2.2080140503199267e-05 -1.9798527668233904e-06  -3.6033354855840857e-05 -2.3987393154154366e-05 1.3189205458206233e-05  3.0096393258040777e-05 2.7400168045274173e-05 1.9667340816344366e-06  5.8510256736155034e-05 -1.0997122491398194e-05 1.8385924804034270e-05  -1.0427826952008609e-04 1.3705388290700059e-05 -8.4842287331531511e-06  -1.4021190559642666e-05 1.3999076990255072e-05 -7.1510820628488028e-06  -3.5299926938553829e-05 7.9277528689673051e-06 9.2424116280707375e-06  </DataArray> 
</PointData> 
</Piece>
</UnstructuredGrid>
</VTKFile>