<?xml version="1.0"?>
<VTKFile type="UnstructuredGrid"  version="0.1"  >
<UnstructuredGrid>
<Piece  NumberOfPoints="201" NumberOfCells="657">
<Points>
<DataArray  type="Float64"  NumberOfComponents="3"  format="ascii">-10.95694649529155 1.407916550969414 414.5189106379473  -14.532026493903 -1.752994215522275 -417.7292201300795  3763.479362219597 2.322061629113396 -403.2379663956093  6623.857449196276 -0.3197137235661899 -398.3469888975469  8350.758878963157 -3.742154509067934 -356.8462724502047  9239.815741290733 -2.256456397308901 -189.1558618415579  9516.841538956302 -0.5912793619960589 55.35100739826793  9240.89892297436 -1.528617761104046 297.8272031592064  8350.415360884588 -3.124007836449024 460.976578024419  6627.771979335675 0.993904124379886 490.8146619283048  3766.882346271437 2.137126736838526 459.8336645141064  4594.982145537055 -931.1117776253473 -389.5296159203531  4616.766368153732 722.049882430447 460.0545060881034  9154.648641544547 -1023.520367215548 -63.78243026928603  7326.595362492401 -997.8512441875619 457.6110140598962  8614.335827791219 998.6397474778031 361.5276535413576  8597.902105621501 999.879511017073 -259.5551952407795  5083.358417307092 846.077879745086 -391.1894600690949  1859.287956304639 -789.4197445255858 423.3600153446727  7302.545567202901 -920.0492882058084 -365.2013765801609  5240.720431465655 -1672.560738996628 -337.5708612310059  7237.032111663329 -1776.312411537564 -260.5998586619766  5065.171183857109 -2350.498086883852 -224.8148622262519  6774.365484425364 -2352.709524844744 -101.8763053929052  4362.849902856327 -2752.446046832365 -78.33079713640339  6048.619287985476 -2608.14355344101 70.58044297950325  3265.577004629325 -2868.827283505595 70.68851539165192  4776.478728855859 -2582.333292586379 222.60396004046  1760.632933638734 -2724.932012914697 193.3502141305777  3251.038689514231 -2263.508211896842 320.5820890269683  -124.700968388425 -2362.985971705577 282.1603573428565  7093.889255304476 -2203.082760765834 229.1814233739412  7317.950359230045 921.6381251740578 464.5231078054895  7126.294072879738 1779.413283699275 363.6628285795224  8168.518281584533 1809.23134387925 212.6101249503559  1296.546096778414 -1758.491393450814 369.6533659970428  4606.913097595794 -1622.035418948204 409.5675439190573  5278.38422179812 1579.149983586324 419.6634493383033  4844.598630177448 2292.977615891408 309.0331688329933  9173.656130640753 -999.0526357907252 170.7443966274524  8167.448597455693 -1947.65284310582 63.50239433166291  8652.80902356295 -1002.24576249837 -249.5273588494766  1838.252786226667 793.1454604593426 -394.7574801427642  7266.465073800909 891.3969571963712 -369.298149279403  7076.554680066829 1768.949220511699 -275.3261838317082  2197.31095055833 -2654.583843865486 -187.6434965838385  -1546.496469619356 -2751.668405082661 158.7690711266443  2378.166637518258 -1609.31528462095 -352.8334415362264  8123.269091698575 1824.811081686212 -116.9268890515199  6257.98444405495 2422.801348105404 -132.6705332767101  4723.238312098584 2223.816998863969 -259.0355495867107  3614.701473255853 2710.473747927831 -136.76340230439  1673.352940016264 2464.218241727356 -248.0043590706217  459.7854046971261 2833.426817441491 -135.571495869961  -1715.3618732557 2537.111044251292 -253.9187089427349  -2705.099630408931 2840.731956353891 -128.306025451294  -4762.215239898804 2534.501853993133 -242.873647841347  -531.9653288158888 2947.514816051737 5.67899840617391  -3471.722322081115 -2355.574848347074 255.3652881930515  -4525.680108915513 -2687.142786763966 121.2531434358474  -5414.570782017897 2694.089547698307 -95.77424354088679  -7071.178270665607 2242.250295346367 -214.4616175822482  -7397.772997955869 2276.922554523586 -31.42769936281603  -8606.144642481557 1596.141494937509 -172.9728455575861  -8697.416940157878 1523.730055108727 59.46203551453859  -7969.801703556829 1453.804847813612 -364.8118198932345  -7272.859561636003 2086.624861892557 168.549588339508  -9111.75839069687 679.6778212547438 -282.7586651550667  -8330.673078458271 1221.717178308677 260.5308034651081  -8258.874209191841 411.2939888414068 -458.7905237951505  -8880.60839566992 -484.3508048793098 -371.7444451836499  -6574.837404732699 1682.15560792083 309.5974023691455  -1684.780501293723 -1218.40217758978 376.5701853900703  -6219.455199691751 -2179.771696805994 223.0961101006312  -7649.565964667781 -611.6920736900207 -477.4061694606343  -7879.398699987526 -1461.214786326967 -371.8854972876035  -9263.197725302534 435.7388551741415 147.6091921831872  -3722.225124621571 2035.199752294493 -361.0579343637829  -7360.677316171776 741.8175285895695 381.5826458041084  2442.897782208093 2002.245356785625 354.1303912155512  -8909.939056965784 -1275.354197177505 -186.2103474237917  -6554.559532134771 232.8705172642615 -491.7255024623395  -5171.940762772483 1209.359218537131 370.9034594507179  -6115.428278945093 -1445.122549336414 -433.1227651907939  -6081.499134198772 -2165.185359217037 -317.2959910141623  -5158.328525564294 2366.51294682862 217.3065672649681  -2600.621892368053 -2906.305305358239 15.33967703641294  -5564.896314845186 211.0046597405189 399.9692830235815  -7588.409311628641 -326.099158959336 385.6080951253033  -3764.516601460993 -2026.521313194397 -364.0447736738303  -3583.499530848322 -2586.311919261005 -245.0432181430013  -3455.407612272486 -1262.05389363301 -426.3422954720687  5125.29192471526 2737.899149817677 19.30424031383077  -6775.04163854527 -2398.978613722139 67.94677160212449  -8110.779725982803 -1722.768874301222 169.9436558181101  1923.406201237344 2578.314951230654 244.35963619744  -732.691618115217 2299.505034852118 286.6239388604064  -261.1881331306385 1726.540142862052 359.1675971622342  -3281.157037919314 747.9773462260803 396.0721886702256  -5010.382338353403 -1703.840388641754 337.502314348475  2672.914560057585 1967.416618286991 -321.2479021616933  -5652.656188789571 -2594.301151146291 -167.9835896019766  -877.2237568349268 1479.453031493732 -384.3702523966277  -2028.049429183753 639.8520542057367 -430.0412671936887  -1188.073079613996 2758.664052897285 160.7792974866127  -2605.472716964577 -456.5541822333139 398.7962133746573  -795.7001070763268 -2409.33632985703 -278.4003939566601  -5280.697807916931 -774.4521420249231 393.7143403079953  -7376.908176801825 -1362.629399861868 319.3055925450892  -8718.249730725569 -707.4319623500063 278.8537972087062  -9169.839893914548 -948.7873871747735 59.26815999357672  -9472.939748434226 -123.7481373279011 -127.1217168715035  -4445.148487021059 1323.956676056793 -434.9605363091112  -6301.881545044756 1556.686769160724 -418.8031636907352  -912.3541874722438 -2776.433206325797 -170.6675433272839  -389.5544015344375 2167.581795628446 -317.3228584640236  4107.609035067241 2718.784556002945 171.2008373593434  8620.55383647425 -958.3926332213163 366.257328732011  592.8062160128011 -825.070009547901 -398.6790497619289  1635.684855440382 -2894.88537482059 -67.20924986475875  -3434.659680950367 1934.039485535953 321.213085369472  9171.291666240042 961.8303323039856 -66.82445924326016  6413.835553459621 2416.961975620199 202.9961940365699  7375.806586067538 2288.70232229535 38.45574589542623  -7553.231250748435 -2075.301444719295 -216.0603535024071  -3399.909785578374 2873.691079977739 18.4051454539974  -5597.313821641978 2626.153515809622 71.57654171702755  -639.1992385982243 -1788.603093992773 -359.5032587447371  -2865.374721819383 -331.940656675932 -446.5897108732364  -5676.689653177962 -567.921032743064 -479.4998136146117  2373.192447875982 2909.902702463427 -10.23130673498773  268.005977073023 -2931.43293335167 58.10298109396229  5831.42431838279 -2046.324521210038 351.370220476147  9176.988827288447 973.6815851507018 159.9828148398877  5081.340698794405 -839.6633342961892 466.8845911009246  -8212.56112737989 -1926.697020503216 -32.02830263999665  -2059.322780845676 -1953.566732557295 323.709458611558  5421.483998645852 1535.335486590133 -345.8888287568713  -8642.317782139615 293.4077827328755 317.2920792284381  2491.371349494619 -2219.053701495172 -286.0415274688458  2888.638188424235 1433.006585310342 407.1692841357564  1471.084618683772 2869.574600105813 117.3788822401771  -6442.286236128582 2080.373035052277 -326.3793770553394  8221.046596410197 -1737.061221421678 -133.4520083114924  -183.9184227776716 759.0233446016244 403.0793389653302  7686.592076325234 -1640.238448065834 349.467242057018  -9258.314470951387 918.0343906590483 -72.38308354030555  -5188.411855663254 -2743.752559020453 -30.28711025457257  -3251.661898988607 -2846.821531013908 -112.2493406530562  8639.759219610643 1641.122638295451 45.46466252816713  -2638.01795425517 1469.197661895364 365.2305719640545  3279.646828384659 1342.630906788861 -368.7199001678414  -4076.95554624941 223.0196249852288 -464.9361759332432  -3807.188953294105 2692.920817069399 145.0900388918453  8352.17749473303 -1625.912364220273 248.1635289961031  -724.0828280662633 -2931.098005381812 -56.67648569654119  -7001.755875253554 872.9440251336184 -469.9111212915273  -5108.371179610346 691.8130527722691 -471.1997537124006  -3031.196216776488 2428.405698757059 244.0959714481376  -6932.669071797132 -2412.940398527905 -80.44473042810424  -8.572096201482996 -0.5809893593477805 -0.666189021808936  -3781.768064020674 -1188.194338583974 -16.60472500009508  5615.300381928991 483.6008915003843 38.59599281461013  -2323.775310208607 1223.303462219753 80.75635102318934  4278.524903789035 -893.9293125078515 127.2985718292097  -2911.952965191737 128.4469955168936 -217.8926128098956  -5769.069435781626 249.181768605161 -41.56302475467086  1147.885072077906 1364.190915214416 -74.78425489372036  4039.381489349638 -698.5940770448791 -107.5308654751776  -3209.901006210909 -131.3276045991156 167.6099953375086  3021.903374462557 1037.405397346334 179.346337111158  -1130.326879154868 -1161.168516445859 -172.6833780493285  976.7587158529432 -1672.961061159294 7.72597334850076  2460.512517399708 450.7957522559124 -195.9352271667245  -951.471
[...]
<PointData  Vectors="Self-Gravity"> 
<DataArray  type="Float64"  Name="Self-Gravity"  NumberOfComponents="3" format="ascii">1.2989666414056157e-06 8.1334719367209195e-07 -1.6231235963189348e-04  -9.9701196216723959e-07 -1.7450134779697188e-06 1.5894934357982710e-04  -1.4991002762089839e-06 7.3184752384506512e-07 1.5825838188953975e-04  -2.4926338822431200e-06 1.0211254732181678e-06 1.3399351334744637e-04  -3.3952024146365505e-06 6.6500525677047249e-07 6.2060080048311403e-05  -2.4835744929324597e-05 1.3018725239116787e-06 9.3750632473447816e-05  -3.7072871801368686e-05 -5.8479351666586444e-07 5.6585422771082128e-06  -2.2868899429569457e-05 -2.9411474478541785e-06 -7.5534064891465559e-05  -4.6145301459448373e-06 8.3202476755981317e-07 -8.2808129319277316e-05  -6.1859710834956328e-07 5.0599358442800535e-07 -1.4109091687608780e-04  6.4362857674268333e-07 1.1519341603859781e-06 -1.3938190181072944e-04  -1.2479030285108648e-06 4.9824206938066264e-06 1.0138128118830973e-04  4.9724627426606164e-07 -4.9252451410619580e-06 -1.4488059438767188e-04  -4.0265244375272454e-05 2.8507189764698086e-05 5.5240895561271422e-05  -1.6094026820779194e-06 7.3565906357932582e-06 -1.2073194658257288e-04  -1.0560448535901438e-05 -1.2299546900831734e-05 -1.0325435727901946e-04  -1.1820502712086787e-05 -1.3631355310327110e-05 1.1058548625348115e-04  -1.2978494294997081e-06 -5.1279919289051634e-06 1.3531450611164141e-04  1.1217819330681324e-06 4.3751666628748974e-06 -1.2071204173738176e-04  -4.1610451331520955e-06 8.6747794449474486e-06 1.2422067989585918e-04  -2.4060866662715133e-06 1.2678885319242092e-05 1.1719875366180778e-04  -6.0078811632570305e-06 2.1536608754234096e-05 9.7196224714167598e-05  -2.4791377773884394e-06 1.9638531139674063e-05 6.7466677598183842e-05  -8.4779594113975365e-06 3.5696004986254470e-05 4.8652733510468159e-05  -2.3841839324048281e-06 2.6881576952552464e-05 3.3421126027829798e-05  -5.8792184682932183e-06 3.7057608547321328e-05 -2.0461023487243325e-05  -1.7167308296759581e-06 3.0021529136230399e-05 -1.3051716452490077e-05  -1.6897971075413350e-06 1.9003139482715607e-05 -4.5667824062563950e-05  9.2020077883852134e-08 2.1817513607176369e-05 -5.7932555539454127e-05  -1.0367978921938585e-07 1.4137252158517664e-05 -6.8997103561378904e-05  7.8386106792128940e-07 2.1477207470713696e-05 -9.5582037805204504e-05  -6.9513237975786113e-06 3.1903145550359996e-05 -7.0870876400821710e-05  -2.6227844361519369e-06 -1.0119958297317295e-05 -1.2382746599701565e-04  -3.8751832745512514e-06 -1.8001271569399498e-05 -9.0217878506675684e-05  -1.4676166483846706e-05 -2.9243881151442299e-05 -6.8769421802565008e-05  7.9254269749847944e-07 1.2711965957429999e-05 -1.2723197052415006e-04  -3.4277482749350234e-08 1.2696598000537889e-05 -1.3216744445749163e-04  -1.3602942699744284e-06 -1.4272649918307778e-05 -1.2737372892409024e-04  -2.1479952308428569e-06 -2.4577722044727761e-05 -8.1647815745476010e-05  -3.5885869476779792e-05 2.4252246454840261e-05 -6.1190101853356900e-05  -1.8248575002065634e-05 3.9834136809313043e-05 -1.2754947610277259e-05  -1.3613910958599864e-05 1.3994250006960165e-05 1.1769396156374173e-04  -9.8719052875319525e-07 -5.5933589248538119e-06 1.5418302387312311e-04  -3.5738805820659363e-06 -7.4386862134053403e-06 1.2618806896280474e-04  -4.9002151110844860e-06 -1.6501081024463211e-05 8.6000047442793959e-05  -1.0246737876010194e-06 1.7712887725162859e-05 6.1590788914579278e-05  8.5212218750316359e-07 2.3816578016710762e-05 -6.2379503564149303e-05  -1.3830111690925872e-06 1.1835595260970482e-05 1.3117790748396659e-04  -1.1945271311748463e-05 -2.4309095697583620e-05 6.1628481725532701e-05  -5.3434489789835026e-06 -2.6846767269088464e-05 5.7771225620118196e-05  -2.0839192859982318e-06 -2.0172320510041511e-05 9.4467574167709338e-05  -2.5062700524434902e-06 -2.6540695265780678e-05 5.7508976008119924e-05  -8.1039893559791543e-07 -2.1080034202458128e-05 9.1952880655782459e-05  -5.6708944632907853e-07 -2.7785737882480943e-05 5.5152990507998203e-05  -3.1821873546978948e-07 -2.2975033248856094e-05 7.9351540442669288e-05  8.5442313200262821e-07 -2.5526550279288749e-05 3.0226881807478818e-05  1.4772838177671589e-06 -2.6407782604667943e-05 7.5888719964404340e-05  9.0759137406096374e-08 -2.9585081136076589e-05 -3.8180058982222129e-06  1.8588272488179190e-06 1.8467018272363963e-05 -8.3316559352455684e-05  1.7784770286098928e-06 2.0544104811374357e-05 -4.0738121920433942e-05  4.0508715890562792e-06 -3.4500444008585038e-05 2.1262114400710050e-05  7.3649066129648030e-06 -2.9404198502071095e-05 6.6200640499171519e-05  1.0103603010669499e-05 -3.0658210582739225e-05 -6.9694107135943977e-06  1.8886926644304469e-05 -3.0400647194658390e-05 4.3884448001154120e-05  2.0210177050553395e-05 -2.8090343330483171e-05 -4.8666622156202755e-05  5.2841407073417713e-06 -1.1939547782049420e-05 6.9023277783094954e-05  7.9736102822425521e-06 -2.1964069352433520e-05 -6.7920216407023893e-05  2.3159965446183990e-05 -1.0352214835664961e-05 9.6560214319880010e-05  1.0638459453086375e-05 -1.3696620552902601e-05 -9.5321369004491748e-05  4.4429971236585939e-06 -1.2410056784172687e-06 8.4565043368200633e-05  1.7699088107340415e-05 6.4929617891146871e-06 1.0016652915330336e-04  3.6870677753858459e-06 -1.7779961900470497e-05 -1.1698292838412535e-04  1.3448074260149858e-06 7.4438703699456746e-06 -1.3531878082604731e-04  3.9675847606936307e-06 1.8713793145941213e-05 -8.6414090737313946e-05  3.5767566514219103e-06 5.3158750576324277e-06 1.2513136388929877e-04  7.4647628650996047e-06 1.6599718971456150e-05 1.1701719826615703e-04  2.9807984077418899e-05 -5.3390627527096906e-06 -7.4333254198132956e-05  4.7692103416525454e-07 -1.2905082181618133e-05 8.9316200752784279e-05  3.2836874274822089e-06 -5.8361861890409506e-06 -9.0841300691847581e-05  3.2173786288575971e-07 -1.4698129985016915e-05 -1.0526226210162695e-04  2.5683355279395775e-05 2.6118647308725955e-05 5.3591872060797282e-05  9.8198215423872622e-07 -7.1397714975795682e-07 1.4066794941588169e-04  1.7123338289919552e-06 -9.2547156812802757e-06 -1.3173637286141633e-04  5.5712702827548776e-07 8.4845307084753217e-06 9.6920508185272509e-05  2.2824735282076195e-06 1.8445475752052049e-05 8.8532279474465690e-05  3.9813373185675938e-06 -2.5375101533227593e-05 -8.1896183510718032e-05  1.3015481616272512e-06 2.8415469710456343e-05 -1.4083382441202617e-05  2.1912495208886205e-06 -1.3494188929161782e-06 -1.4319246724413248e-04  5.2025118581539679e-06 2.0305856662130872e-06 -1.2668575793154665e-04  2.1270323557596070e-07 1.5098676557125548e-05 9.9167328954147675e-05  9.0400862976653931e-07 2.0183997503819158e-05 6.1975273285498739e-05  -9.0105479882497481e-07 8.3425262628802289e-06 1.4023788504186931e-04  -4.2808276310938264e-06 -3.6651346799291851e-05 -9.6097955396117385e-07  6.9867327849008423e-06 2.8528102527860373e-05 -4.7398948398959121e-05  1.1329688393496149e-05 2.3520555083665307e-05 -7.6190231618762351e-05  2.3230358883951781e-07 -1.8865178843885458e-05 -7.5894493411118389e-05  8.9923350310131836e-07 -1.9214722532959278e-05 -1.0490629860440202e-04  8.2472553334513829e-07 -1.0008941740887363e-05 -1.1752818457479284e-04  1.1574182113526580e-06 -3.5203770970870767e-06 -1.3322390923738438e-04  2.3812119113426573e-06 1.3527635158998646e-05 -1.1389794877286849e-04  -1.1088788560735992e-06 -1.2704176754127257e-05 1.1429665982983779e-04  2.8437292576402359e-06 2.4996389485321025e-05 5.5895934837055232e-05  -7.8688130578192564e-07 -9.2379599321514099e-06 1.1110987277927990e-04  -1.1299366874184241e-06 -5.7524958537559910e-06 1.6316154173417043e-04  5.4209191599729687e-07 -2.6250432466357760e-05 -5.9734671349308164e-05  1.0627626338704853e-06 1.1612402989418799e-06 -1.5901587589908469e-04  -6.6813485883379280e-07 2.0955515948850374e-05 9.5027911286123422e-05  2.3835350158120083e-06 4.6111334914147347e-06 -1.2807502455345609e-04  5.5305267355831923e-06 1.1523906807805736e-05 -1.3502689000415721e-04  7.1168277537409907e-06 4.2359782224789486e-06 -7.4675268743465320e-05  3.0607587672783727e-05 1.9878388704075510e-05 -4.5366444274420752e-05  3.2117058273607623e-05 4.4199462988282041e-06 3.0245233579934907e-05  -1.9002365531095964e-07 -1.0356927526589756e-05 1.3846512028010968e-04  1.6385835787957477e-06 -1.2395755781314942e-05 1.0893513693413376e-04  -2.5093214455594418e-07 2.4932833279078325e-05 6.4760180210657876e-05  -6.4584433634940143e-07 -1.2353968723118625e-05 7.7238488855309228e-05  -2.0738600956359303e-06 -3.0329512920978789e-05 -5.6775631397832934e-05  -1.4376705973316365e-05 1.5575706571070213e-05 -1.1073774790183258e-04  -9.2461324751728545e-07 3.9052008028446126e-06 1.4339122997182721e-04  -6.2064256764449887e-07 2.7664276503824778e-05 3.3100626904531025e-05  1.0247574265270276e-06 -1.0386611581436137e-05 -1.1066878737803226e-04  -3.1796962104774381e-05 -2.1323138665690386e-05 5.6471359199235767e-05  -4.4929354434702995e-06 -2.6449452061634651e-05 -5.8214575134621475e-05  -1.0599754796263929e-05 -3.5679372620836525e-05 -1.0026556164533346e-05  1.1972458909144653e-05 3.4210559474593145e-05 7.2243369823558028e-05  2.4801592961000034e-06 -3.2013170723551188e-05 -1.6362116854745068e-05  4.3943554989696485e-06 -3.0713159971406783e-05 -3.8913088298183921e-05  -6.5573488041540955e-07 1.1193011854217016e-05 1.0782482352142518e-04  -1.2855938068874832e-06 4.5248344358109535e-06 1.5728392447585799e-04  1.9821217949586906e-07 3.5409464714752549e-06 1.1507217760172074e-04  -7.9988475927817636e-07 -2.7212968353392114e-05 1.2277664186213577e-05  -1.1530847993724010e-07 2.6898405224625332e-05 -2.3514766383643849e-05  -1.6520421896755050e-06 1.6433644320291006e-05 -9.0414129673201978e-05  -3.5125722784221024e-05 -2.3247668591621126e-05 -5.1082283529076780e-05  4.5274438694556595e-07 4.8228174321952753e-06 -1.2599248227745810e-04  1.7914334597370144e-05 3.3375923792901595e-05 -1.0502928857401453e-05  1.0268317951965549e-06 1.0469435422882635e-05 -9.1970525336517616e-05  -1.9804980977301158e-06 -1.3062925612471147e-05 1.2552849218007504e-04  1.1113100564123989e-05 -1.4946679452682767e-06 -1.1667157906548306e-04  -1.0192368868453866e-06 1.5931851331529643e-05 9.5867749227591394e-05  6.0161493622935446e-07 -6.6562407727037988e-06 -1.2383045292107311e-04  -7.7826034215149481e-08 -2.6580885497045588e-05 -3.9046966303987068e-05  2.8473771411449066e-06 -2.1372720112801611e-05 9.7112831635221016e-05  -1.6301260585025162e-05 3.1596784763233869e-05 6.5265106098580706e-05  4.0565456885245172e-07 -5.8991199113943962e-06 -1.4850929107708440e-04  -5.7103559892918205e-06 1.8322903171140569e-05 -1.1100677662012792e-04  3.7213001429764663e-05 -2.2684790333409345e-05 2.6618090704971670e-06  3.3110641065503080e-06 3.0170304889717044e-05 -4.5599020222491125e-06  1.0523230982095992e-06 2.3358346553040214e-05 3.2560698895993182e-05  -1.9433395003286422e-05 -3.0437313506693049e-05 -6.2458644530313617e-06  1.2914350856302911e-06 -5.5675896948673075e-06 -1.3042141788885636e-04  -1.1491381115533298e-06 -1.0223215679914995e-05 1.2715187099096944e-04  -3.6750665054067475e-07 -1.5262250947949011e-06 1.5153959457043389e-04  2.1635683888613114e-06 -2.5949007359541858e-05 -4.8215106553712602e-05  -1.7654607078467741e-05 3.1050203214517915e-05 -8.0465429274839630e-05  2.2806652999536725e-07 2.8761402636056150e-05 1.1502631597046149e-05  2.0037702903183444e-06 -8.6211689948279083e-06 1.6188437660325409e-04  -8.5786982437543834e-07 -3.3935869989459084e-06 1.5689358444391030e-04  1.5553401178349436e-06 -2.2332446726836694e-05 -9.1570641024455311e-05  1.1243474366883633e-05 4.5853715063852968e-05 1.3523470225626389e-05  -5.7485278502847631e-08 2.9183642622306789e-06 -7.6976607282888567e-06  4.7794615660271121e-06 1.6401684205878783e-05 -6.9298678317295107e-06  -1.3568198062885142e-05 -7.3394708891725249e-06 -8.7686592707967152e-06  2.1466111888660758e-06 -1.4180477382345629e-05 -5.7240831778757268e-05  -4.2235723085327274e-06 1.2173892505055460e-05 -5.0056478225752702e-05  6.4287799633775559e-07 -2.6585088162963313e-06 1.0179498149753695e-04  1.2626069393226836e-05 -5.9659079760885904e-06 -6.0169490501568364e-06  -1.0182678993891553e-06 -1.6504686895216535e-05 5.9684290985546287e-05  -4.1544084127230366e-06 8.9511927085801076e-06 6.2832015726642398e-05  2.4823136356939499e-06 2.3937661699741517e-06 -9.5209724361398950e-05  -1.4904169985434712e-06 -1.2784066315560426e-05 -9.7167448185720890e-05  1.9196139149964319e-07 1.0678253422188469e-05 6.6730977999379459e-05  -5.8803021478905665e-07 1.5681912454817247e-05 4.5132952612055928e-06  -1.5731069292112592e-06 -5.1088533001336168e-06 1.2311744683800283e-04  1.1676696699217165e-06 1.1573063109908556e-05 -7.8721611337788546e-05  3.8194358857238086e-07 3.4205526302484625e-06 -1.2022394850845986e-04  2.6080332971442961e-06 -1.4491638720002802e-05 3.8108072169968266e-05  9.5704262234313861e-06 1.3222779361850509e-05 6.0124539982149288e-05  -7.0140997787292735e-06 1.1999717567634420e-06 -9.3749122791234442e-05  8.9817566145971871e-07 -8.0231619545520075e-06 -1.1938310442277076e-04  -4.4346754254699669e-07 -2.2031988061899713e-05 -4.8729353267839522e-05  -4.6501905709089242e-06 -1.6119872304814901e-05 8.5941628542995100e-05  -4.7120434769243896e-06 -2.4024361622875273e-05 8.9362874364718916e-07  7.4282871440050615e-06 -1.0044179784585122e-05 -1.0575879253286967e-04  -2.4197675418013469e-05 1.8843291254908184e-05 1.6761029240858318e-05  -3.0834169287910433e-07 -1.2072800168010122e-05 1.0821752091210820e-04  1.6954350534170427e-05 1.5180912088597263e-05 -7.3762352967955431e-05  -1.1670963099882658e-05 -4.4407446612519464e-06 9.3197510307343700e-05  -6.6496490031081049e-06 2.8870260182498969e-05 2.5497755660882880e-05  1.0131896770340490e-05 -1.0307339513823886e-05 1.0346818927523399e-04  -1.0110209139811713e-06 4.3817573355270519e-06 1.1297294000258853e-04  9.0145981177100685e-07 2.2597623455903234e-05 4.9980055530628055e-05  1.8129189019496545e-06 2.5078408597844059e-05 -4.9007657523363150e-05  -8.3432804002543838e-07 2.0418349511493976e-05 -6.7748997933379760e-05  8.2155085377916720e-06 -2.8802224605968898e-05 -2.3027939625142699e-05  -1.4602826880376141e-06 1.7371669190982586e-05 8.3213163570113838e-05  1.0138603105140460e-06 -2.4427391435864664e-05 1.4880968531692248e-05  7.2794914595398052e-07 7.3355462750520931e-06 1.2424302824562823e-04  -1.2026522579193221e-05 -2.2223073055664891e-05 -8.2704438312407690e-05  -1.5980468981965123e-07 -8.9411680683705674e-06 -5.0584919522381796e-05  -2.1235435613100217e-06 -5.3312470225079898e-06 5.9411616750186408e-05  </DataArray> 
</PointData> 
</Piece>
</UnstructuredGrid>
</VTKFile>