<?xml version="1.0"?>
<VTKFile type="UnstructuredGrid"  version="0.1"  >
<UnstructuredGrid>
<Piece  NumberOfPoints="201" NumberOfCells="657">
<Points>
<DataArray  type="Float64"  NumberOfComponents="3"  format="ascii">-1.036354070732065 -0.4851988820064306 760.3806312320564  -0.5101867058033143 -0.08587183029620128 -761.3037800360916  1957.97654189783 -0.4718396007705012 -735.5353558412847  3694.301032024272 -1.280415966334568 -651.4636291808587  5027.085730794261 -1.470826792365797 -505.141513219292  5854.44419910492 -1.671748055593625 -276.430160053957  6134.799168441545 -2.359447519869696 0.4314504985382208  5854.780890274741 -2.53063712911174 276.2195229536155  5026.98843463862 -1.823565598269431 504.3723455575559  3693.951227913596 -1.428412726816742 651.8419114542597  1958.083219594388 -0.05328035826293781 734.2374777564507  2468.237774110871 -1827.36552778537 -690.2798829591296  2457.281735115267 1419.2599182048 700.8388834354212  5844.529139064471 -1584.810490901194 -134.5540268312517  4274.991601165953 -1755.229664449368 561.1403028805702  5347.061451013935 1609.521873389543 372.473624642406  5326.656774129223 1607.888695763539 -378.0615509567411  2754.832104875966 1632.76106502209 -683.1754775345275  953.7063201128792 -1643.439990130036 735.3918974360682  4249.233377390708 -1618.907215718272 -570.3394369092656  2960.659086850772 -3179.519529077014 -585.6916459544161  4359.968807448786 -3086.363550037849 -423.2400902454364  2985.859059520617 -4408.242430465438 -409.0735827635118  4182.133400382418 -4109.786660544907 -207.2367447139917  2622.782906686578 -5213.793628113145 -176.2341586765618  3729.61896772704 -4670.8184283967 45.10751435697966  1958.070677689234 -5565.408461649924 80.19522360406899  2852.52453277075 -4852.179432827043 301.751569810364  1027.684849727184 -5442.40146504634 318.9370728164414  1841.488907838983 -4476.556141073513 507.459711608805  -72.89984208745391 -4808.552369754673 507.9895702338802  4372.225798179166 -3807.134751175573 254.9179476047583  4251.765792770724 1615.755888890768 570.2033476065515  4275.643421276881 3105.67352437949 437.4858581168784  5137.240587153219 2952.882277559706 204.5141940892805  694.4333368599495 -3609.973409710776 641.3360650547356  2543.799209406583 -3157.771669106326 613.428652699438  2965.216329679824 2999.115046915968 600.9766472750314  2830.3558158432 4345.595243529793 441.7924272771832  5856.617366117468 -1546.66259562403 134.9399008008508  5161.584975369298 -3190.283460740061 16.048909554946  5359.582136776183 -1613.555513888642 -367.9927480359191  954.7720058569071 1643.122241640962 -734.3361861027613  4210.796445328602 1577.226204180206 -577.1170008253207  4242.841432936226 3089.828059740313 -445.2608415648519  1277.760484245682 -5286.997256235332 -357.3417071564412  -897.0687154232658 -5505.884417627975 303.0022405263792  1270.560594891629 -3280.723772378517 -655.3905130147335  5103.437504779477 2990.439273232076 -211.3881415565163  3820.1767671029 4322.802575509248 -254.0230662561538  2735.667863509909 4242.76748008793 -472.1279109967139  2144.078296728333 5246.022335189855 -272.1352273555009  954.9734750540352 4961.11434293748 -460.7066554506487  277.3352657511083 5677.164523427798 -247.5630752478622  -974.7763695957108 5098.588595241054 -427.2878886837548  -1597.456609690003 5568.291288332027 -188.1108443012176  -2826.952480130969 4773.897166487864 -334.8370469127782  -306.9039517009652 5888.224955382915 17.18294637938744  -1984.236938420777 -4612.930489835626 472.0100491143015  -2716.618031808989 -5058.21325046026 243.3237884932186  -3303.473116850277 4936.730899408827 -92.87821115388221  -4370.474531952752 3871.099642402276 -232.6238674161163  -4642.931267454196 3851.378670059725 20.96233686805575  -5454.239131656864 2542.459443576458 -146.2623937351457  -5527.248198810037 2413.110398799508 135.3676794439728  -4876.087078320499 2427.055289608794 -403.6411289761616  -4482.875882096459 3578.184838740831 290.4230605117335  -5778.995927402209 1059.338675855466 -263.1566412457788  -5137.164458604816 1996.927589191974 389.2897715157808  -4967.549743997713 688.0184824537118 -506.2094170014003  -5541.313415451037 -769.3091784861905 -371.8232715986172  -3846.828744595937 3028.877571281224 512.7137118640875  -873.8343453714352 -2515.050454788146 704.3212604910246  -3727.444029619353 -3930.233074923751 391.6534759181103  -4482.112632402833 -1051.984727980748 -565.2206756943737  -4802.662967988739 -2451.277329137081 -417.7771551345949  -5906.819898891193 673.4049079563506 227.6183072620147  -2084.534986948899 3997.093752106393 -560.5253485959568  -4272.931837478356 1300.44592504526 582.4325984774327  1346.411436359815 4046.574168903763 588.5025092997527  -5683.500475578365 -1992.707474171568 -154.4635291255369  -3657.02393959439 425.1345265580402 -654.0936782374183  -2847.908080072608 2330.390214298953 649.1415734017778  -3494.854876668241 -2663.2856706242 -584.6211886120584  -3625.951659811596 -3926.645260677987 -410.6891137867829  -3051.609105163652 4422.979560175545 395.6160028796742  -1549.172622674469 -5694.518206609429 58.8470090045442  -3012.653534114239 394.2311653453929 691.7291024981748  -4409.306877186971 -561.0811379246777 584.9262731820668  -2110.478022212507 -3971.331980204264 -560.8360860625593  -2096.848873905759 -5012.795090903855 -366.5593950655421  -1837.750696387326 -2541.56870967295 -683.6825487610859  3115.324918980369 5076.354881596643 -25.66013864036361  -4192.560917894549 -4189.278713910325 159.7019608712405  -5056.151441049562 -2834.23976108805 278.0481151313327  1109.236815135318 5157.330794037871 406.552321094809  -402.5356984005239 4680.283804174498 525.1187098357411  -139.8725629455482 3559.562784405916 653.2512238218342  -1713.99229540705 1516.376748505312 724.0222568212562  -2824.819527683973 -3250.189644616451 589.8727532506047  1475.844329834033 3958.972180385545 -592.8015598075212  -3448.17754536476 -4720.248612806722 -196.8511931737311  -465.021022194321 3061.205655043588 -682.4723871735395  -1040.195089554663 1320.576872508931 -741.6781072782882  -685.4746569908291 5532.770361598409 302.2725596814681  -1340.034973612086 -936.4118147923311 741.4886805199212  -450.2705522558285 -4891.960999891387 -488.3701884059133  -2875.506790202683 -1491.007669273715 681.7186740595309  -4375.561690157492 -2369.839731766268 503.6984017085825  -5411.814305092706 -1130.946521205244 391.3120265940035  -5881.826324251459 -1459.177247176129 127.6896517346364  -6107.832930463875 -187.9651938304677 -79.44030970633827  -2414.969722799414 2594.958437800354 -658.7073577149705  -3632.5437041316 2846.165233115601 -555.9781075357217  -527.5811336150742 -5573.73386109199 -292.0800615985472  -211.2292845759922 4428.899268648874 -565.3616734664919  2455.153211866223 5194.034494484631 234.3206789492336  5326.019816372148 -1541.826202075345 383.3244296023947  314.5322727872724 -1724.769217062632 -737.4234570771806  969.9562712841969 -5757.381206137613 -139.6321384086894  -1902.118345074355 3837.756464424552 587.430030287674  5869.866573012975 1482.45970869465 -137.4611851518372  3931.282516172413 4281.385848653101 232.1692236436958  4626.155132734302 3870.159932090813 -10.34108143150177  -4697.652649890306 -3510.809267049806 -226.8284928208998  -2033.540291528714 5546.966919368442 70.73397497268405  -3414.775206720649 4787.182413975192 165.3799311437648  -341.7021381578357 -3689.216128882092 -639.7370431520758  -1478.061854501641 -679.0019290407438 -743.5097933141001  -3095.012736498998 -1081.608845676257 -678.9145891804374  1419.01855365977 5730.759878730871 -46.94615151962014  163.2542705379336 -5861.525837536986 100.9529571309842  3424.353038081954 -3766.623797869839 470.1669348372898  5879.035743359321 1501.742552966451 121.9609626228063  2754.66288777644 -1622.308033660499 684.6077896263918  -5192.649685201321 -3140.53453855734 22.27848540236623  -1122.101578631054 -3967.532519233364 602.553522918855  3049.121668971574 2908.038676744276 -600.7484372245806  -5305.035424338211 476.7295714759195 443.9469915648911  1396.424176553851 -4456.786367776121 -533.4076549525063  1543.485178240679 2905.621859259318 672.8441083571472  876.271816539944 5712.350606190855 189.2078789316701  -3848.652103969711 3727.521805701228 -411.0553002982201  5146.040701884235 -2848.741356756638 -234.3259780618121  -96.90663180533741 1584.273715260307 740.333760784588  4683.731090142579 -2788.91025641867 398.2504061603208  -5955.606989655271 1407.399592727383 -20.89725023629386  -3174.018692077241 -5048.925446725887 7.948099650333916  -1941.182888596933 -5514.15483932171 -150.61116032993  5506.923829651668 2601.587608070725 -6.794526646342165  -1404.546486995925 2980.719566144264 672.9341535759864  1751.163178129251 2705.95665691964 -678.9642803969532  -2134.259507159602 448.5333838100931 -728.2868748841471  -2252.524865686413 5179.302230920813 283.9640690610137  5234.335565401807 -2651.078864004875 246.7219152662521  -422.3304007067275 -5857.331544369461 -90.91799799308959  -4011.29141236465 1564.031975176865 -597.3421258999614  -2762.517583348497 1339.237997694975 -691.61175819904  -1733.319684589848 4791.683079057688 454.6576018400393  -4318.205962349965 -4179.15151735574 -50.56989466585932  0.0002546673210264892 0.2178894661087512 -0.09609092074349039  -2015.876526656313 -2376.206106485804 21.36897255764926  3046.208192658806 925.9209638427586 -3.666211460375715  -1215.301682712755 2501.552267662837 173.0509251581767  2273.288573616898 -1773.945481215602 157.4053081152568  -1490.085385476266 261.3427507192384 -341.0222478194551  -3133.271741704797 471.9275904780345 -0.05852193086646304  600.9456602604362 2827.905552313156 -150.8888191636797  2122.600478859835 -1396.647119939459 -233.3099275469184  -1655.967963002237 -265.2018736126916 332.0093148955067  1583.4169065118 2105.175623385635 272.6258743242931  -584.8042929386786 -2404.972390915444 -295.3010915693809  518.6808764472549 -3456.283885287612 1.383964881049497  1264.393982158441 924.7173612508335 -380.39240
[...]
<PointData  Vectors="Coriolis"> 
<DataArray  type="Float64"  Name="Coriolis"  NumberOfComponents="3" format="ascii">-6.5598388196385970e-10 1.6442077912748687e-09 0.0000000000000000e+00  -1.1108270357708141e-10 7.6720874984235198e-10 0.0000000000000000e+00  -1.3748303880111974e-09 -2.6646574028853482e-07 0.0000000000000000e+00  -2.8405344110622483e-09 -4.5515042623937263e-07 0.0000000000000000e+00  -3.2821541488223458e-09 -5.3409172784792906e-07 0.0000000000000000e+00  -3.5764222394896143e-09 -5.4477030095118063e-07 0.0000000000000000e+00  -4.4404325832093529e-09 -5.4178806192177677e-07 0.0000000000000000e+00  -4.7116313557089502e-09 -5.4515886676147908e-07 0.0000000000000000e+00  -3.7631118480022956e-09 -5.3401171062175343e-07 0.0000000000000000e+00  -3.0972435495387519e-09 -4.5466752962832218e-07 0.0000000000000000e+00  -6.4579732892803129e-10 -2.6665477170390531e-07 0.0000000000000000e+00  -2.2006862670832524e-07 -3.1567696813307316e-07 0.0000000000000000e+00  1.7010140184237572e-07 -3.2291298593627846e-07 0.0000000000000000e+00  -1.3170814116349320e-07 -5.2322057808170165e-07 0.0000000000000000e+00  -1.8209165247887531e-07 -4.7748606346980707e-07 0.0000000000000000e+00  1.4038525726597023e-07 -5.2231032013984632e-07 0.0000000000000000e+00  1.3861586259743309e-07 -5.2279357429289042e-07 0.0000000000000000e+00  1.9133589959011191e-07 -3.5129089738734895e-07 0.0000000000000000e+00  -2.1042100249037076e-07 -1.2845686724889583e-07 0.0000000000000000e+00  -1.7038820571270925e-07 -4.7792712323351315e-07 0.0000000000000000e+00  -3.3803135262337003e-07 -3.3677562152568164e-07 0.0000000000000000e+00  -2.8536447968670730e-07 -4.3975000061299552e-07 0.0000000000000000e+00  -4.0237209605842992e-07 -2.9571626870000033e-07 0.0000000000000000e+00  -3.3848756033819003e-07 -3.8022087278246546e-07 0.0000000000000000e+00  -4.2855605894663398e-07 -2.3578342945527447e-07 0.0000000000000000e+00  -3.7349663631751499e-07 -3.2933100803794078e-07 0.0000000000000000e+00  -4.5045019350322368e-07 -1.7094674592144765e-07 0.0000000000000000e+00  -4.1658709233052664e-07 -2.6688964524779437e-07 0.0000000000000000e+00  -4.7380920194600927e-07 -9.5215954509358434e-08 0.0000000000000000e+00  -4.4174847271552246e-07 -1.9442825457686122e-07 0.0000000000000000e+00  -4.7433393729937758e-07 1.0693541902969513e-08 0.0000000000000000e+00  -3.2054597913932069e-07 -4.0590893343776077e-07 0.0000000000000000e+00  1.6371141862751203e-07 -4.8203488515523469e-07 0.0000000000000000e+00  2.8413748597355620e-07 -4.3811111380250671e-07 0.0000000000000000e+00  2.3870569435622044e-07 -4.7052860508112012e-07 0.0000000000000000e+00  -4.1113779712571384e-07 -8.1424598161566347e-08 0.0000000000000000e+00  -3.4781952663499125e-07 -3.0051891021118078e-07 0.0000000000000000e+00  3.1913470172745766e-07 -3.4587115787050013e-07 0.0000000000000000e+00  4.0298818322079604e-07 -2.9112541718548723e-07 0.0000000000000000e+00  -1.2903113914396652e-07 -5.2516382834456479e-07 0.0000000000000000e+00  -2.5718659445440038e-07 -4.5918869018677779e-07 0.0000000000000000e+00  -1.4652466521235878e-07 -5.2333415106085152e-07 0.0000000000000000e+00  2.0935603222995531e-07 -1.3062065025322589e-07 0.0000000000000000e+00  1.6244576089080200e-07 -4.7947094533004637e-07 0.0000000000000000e+00  2.8411744674250784e-07 -4.3527942868470857e-07 0.0000000000000000e+00  -4.6989252712309071e-07 -1.2111408869279210e-07 0.0000000000000000e+00  -4.7705074923583125e-07 9.0923028198217206e-08 0.0000000000000000e+00  -3.7810160014743292e-07 -1.5549241192177565e-07 0.0000000000000000e+00  2.4447824063569632e-07 -4.6890343730420235e-07 0.0000000000000000e+00  3.5820919098200701e-07 -3.5686286208151717e-07 0.0000000000000000e+00  4.0131943902170943e-07 -2.8821591225806666e-07 0.0000000000000000e+00  4.4370725296232851e-07 -2.0395761904988730e-07 0.0000000000000000e+00  4.6890637918818147e-07 -1.0212332320163405e-07 0.0000000000000000e+00  4.7761544256443755e-07 -2.7264013096231776e-08 0.0000000000000000e+00  4.7382527212945877e-07 9.6982041812099156e-08 0.0000000000000000e+00  4.5951103844071661e-07 1.4425972992143544e-07 0.0000000000000000e+00  4.1912405374316076e-07 2.7146212107658765e-07 0.0000000000000000e+00  4.7320975702799614e-07 2.6373135526591603e-08 0.0000000000000000e+00  -4.4114217392355336e-07 2.1108274422285393e-07 0.0000000000000000e+00  -4.2455485716804627e-07 2.5492790506073363e-07 0.0000000000000000e+00  4.0050190432641621e-07 2.9564419513681582e-07 0.0000000000000000e+00  3.2705637749880643e-07 4.0107415683516164e-07 0.0000000000000000e+00  3.1093095261994702e-07 4.0940130098963958e-07 0.0000000000000000e+00  2.0777605525109025e-07 4.9099407556731010e-07 0.0000000000000000e+00  1.9707664504474369e-07 4.9542944751233448e-07 0.0000000000000000e+00  2.2213522491632558e-07 4.8221515797407322e-07 0.0000000000000000e+00  3.0807338719034560e-07 4.1979682932796451e-07 0.0000000000000000e+00  9.4580261486623285e-08 5.3311671618831226e-07 0.0000000000000000e+00  1.8145467655941647e-07 5.0408134188349480e-07 0.0000000000000000e+00  7.2679666321406472e-08 5.2649754112689108e-07 0.0000000000000000e+00  -6.6321440879828670e-08 5.3575206779433055e-07 0.0000000000000000e+00  3.0041074864729584e-07 4.1277281941733993e-07 0.0000000000000000e+00  -3.0772678315306732e-07 1.1731099717585720e-07 0.0000000000000000e+00  -3.5457392339015684e-07 3.7283463395317825e-07 0.0000000000000000e+00  -1.0547479712648518e-07 5.0175408729486594e-07 0.0000000000000000e+00  -2.2213072105174322e-07 4.8111391421507586e-07 0.0000000000000000e+00  6.2058976333079341e-08 5.3798841795796524e-07 0.0000000000000000e+00  4.1282197004223752e-07 2.3153450505990288e-07 0.0000000000000000e+00  1.3973614797002163e-07 4.8523925400327062e-07 0.0000000000000000e+00  4.2813262848011496e-07 -1.5825162126327471e-07 0.0000000000000000e+00  -1.5939331108459119e-07 5.0777594888017272e-07 0.0000000000000000e+00  5.1127853272865314e-08 4.4820574631235376e-07 0.0000000000000000e+00  2.6900169965875580e-07 3.4696891717350361e-07 0.0000000000000000e+00  -2.7925182819196480e-07 3.9970214693820108e-07 0.0000000000000000e+00  -3.5683256699874755e-07 3.6627986327800024e-07 0.0000000000000000e+00  4.0463636991631104e-07 3.0119826590192685e-07 0.0000000000000000e+00  -4.5921304059267240e-07 1.4211021788825289e-07 0.0000000000000000e+00  4.9057865776170973e-08 3.8821711606804759e-07 0.0000000000000000e+00  -5.5218229743476402e-08 5.0335431732625264e-07 0.0000000000000000e+00  -4.0899630284831133e-07 2.3933235148441445e-07 0.0000000000000000e+00  -4.4600432177082561e-07 2.0835002937954438e-07 0.0000000000000000e+00  -3.0191144764214202e-07 2.3727894078823519e-07 0.0000000000000000e+00  4.0273207909322940e-07 -2.8221862915273359e-07 0.0000000000000000e+00  -3.4198963279502168e-07 3.8345970542685273e-07 0.0000000000000000e+00  -2.3811087083048487e-07 4.7347280174557599e-07 0.0000000000000000e+00  4.7049969307063655e-07 -1.1354574835976991e-07 0.0000000000000000e+00  4.6857102897484105e-07 4.3213105521907306e-08 0.0000000000000000e+00  4.0553896419859827e-07 1.5270240238062849e-08 0.0000000000000000e+00  1.9237089700119976e-07 2.2903407649040264e-07 0.0000000000000000e+00  -3.4508629351527807e-07 3.2645497002418151e-07 0.0000000000000000e+00  4.2266026418922531e-07 -1.7307564137472433e-07 0.0000000000000000e+00  -3.9139211842061143e-07 3.1820522009931484e-07 0.0000000000000000e+00  3.6428940890100997e-07 5.6426017658529690e-08 0.0000000000000000e+00  1.7033735183177534e-07 1.4207186547654390e-07 0.0000000000000000e+00  4.7833653889827370e-07 6.3729428519134270e-08 0.0000000000000000e+00  -1.2257372562752010e-07 1.8480639505432528e-07 0.0000000000000000e+00  -4.7644366674198668e-07 5.0565363988789281e-08 0.0000000000000000e+00  -1.7400376540735664e-07 3.6445086663419530e-07 0.0000000000000000e+00  -2.3113028453033308e-07 4.6808466843267850e-07 0.0000000000000000e+00  -9.8430594178190109e-08 5.2916104039740062e-07 0.0000000000000000e+00  -1.1525974426295721e-07 5.2100911186678796e-07 0.0000000000000000e+00  -1.1135878236397064e-08 5.3811546920299270e-07 0.0000000000000000e+00  3.0008586682977795e-07 2.9856015060713877e-07 0.0000000000000000e+00  2.9348186912929901e-07 4.0384512132512464e-07 0.0000000000000000e+00  -4.8060404529181742e-07 5.5508907699057785e-08 0.0000000000000000e+00  4.5806347273805878e-07 2.1509740037000138e-08 0.0000000000000000e+00  4.3090514259653343e-07 -2.2980293516584673e-07 0.0000000000000000e+00  -1.3978830123843603e-07 -5.2361883942984465e-07 0.0000000000000000e+00  -2.2097295572947142e-07 -3.9450327081380141e-08 0.0000000000000000e+00  -4.7124734324646704e-07 -8.4607471059331732e-08 0.0000000000000000e+00  4.1005073141357681e-07 2.1617830441884528e-07 0.0000000000000000e+00  1.1660273159416425e-07 -5.2646527171298170e-07 0.0000000000000000e+00  3.5184273673794408e-07 -3.6428570182484837e-07 0.0000000000000000e+00  3.0416611212782255e-07 -4.1266575881396861e-07 0.0000000000000000e+00  -2.9045594481695293e-07 4.3404240848440209e-07 0.0000000000000000e+00  4.4936074773755760e-07 1.8027023973314215e-07 0.0000000000000000e+00  3.9346118070341970e-07 3.0750184132412259e-07 0.0000000000000000e+00  -4.1785767805674121e-07 4.3970276187925262e-08 0.0000000000000000e+00  -8.5789887846861466e-08 2.0368554359645053e-07 0.0000000000000000e+00  -1.2371639278494497e-07 3.9300685448314460e-07 0.0000000000000000e+00  4.6180098946934515e-07 -1.2859782192219350e-07 0.0000000000000000e+00  -4.7617165191731949e-07 -9.5056067675219440e-09 0.0000000000000000e+00  -3.6037213397787296e-07 -3.5329413661219325e-07 0.0000000000000000e+00  1.1845670000729872e-07 -5.2565645744235768e-07 0.0000000000000000e+00  -1.9336571762814131e-07 -3.4808011113388918e-07 0.0000000000000000e+00  -2.4896201027223773e-07 4.6359120175237167e-07 0.0000000000000000e+00  -4.2867341087935379e-07 1.3444245685024224e-07 0.0000000000000000e+00  3.1003520634899802e-07 -3.5618972157466178e-07 0.0000000000000000e+00  4.8868276624966763e-08 5.3643683488556623e-07 0.0000000000000000e+00  -4.5086663412828090e-07 -1.4960795493086567e-07 0.0000000000000000e+00  3.4070021573185511e-07 -1.9670333024558592e-07 0.0000000000000000e+00  4.7085637331421846e-07 -8.1422332531725051e-08 0.0000000000000000e+00  3.4335475139618515e-07 3.8520113421687825e-07 0.0000000000000000e+00  -2.3877042998523207e-07 -4.7500798740724144e-07 0.0000000000000000e+00  2.0324921953612214e-07 1.2638941428083643e-08 0.0000000000000000e+00  -2.5626221541715053e-07 -4.6420726983729672e-07 0.0000000000000000e+00  1.1750677612672845e-07 5.2449450023269062e-07 0.0000000000000000e+00  -4.0698569563001752e-07 2.8517189135115845e-07 0.0000000000000000e+00  -4.5029776892033015e-07 1.7894845840086318e-07 0.0000000000000000e+00  2.0362964457745723e-07 -4.9107642647474829e-07 0.0000000000000000e+00  3.5006813815554006e-07 1.7529149417111870e-07 0.0000000000000000e+00  3.1614596113073646e-07 -2.2461837419336339e-07 0.0000000000000000e+00  5.9370212477625444e-08 2.8732144274755533e-07 0.0000000000000000e+00  4.4436122030051132e-07 2.1133923823831418e-07 0.0000000000000000e+00  -2.2437416119261288e-07 -4.8419685112714755e-07 0.0000000000000000e+00  -4.7648475039535561e-07 4.4155206765820904e-08 0.0000000000000000e+00  1.7101933078280679e-07 4.6418280468178320e-07 0.0000000000000000e+00  1.6200006639673398e-07 3.5242782765666663e-07 0.0000000000000000e+00  4.5237505491990143e-07 1.7738585593372717e-07 0.0000000000000000e+00  -3.3442130966659559e-07 3.8777507841922978e-07 0.0000000000000000e+00  3.0549898955160372e-10 4.1541808892351932e-12 0.0000000000000000e+00  -2.8993688293028134e-07 2.6541274836556302e-07 0.0000000000000000e+00  1.1144801138211947e-07 -3.9796860609130346e-07 0.0000000000000000e+00  3.1239303153127197e-07 1.6091497774337438e-07 0.0000000000000000e+00  -2.2245946823574425e-07 -3.0065468297390384e-07 0.0000000000000000e+00  3.5830921288366414e-08 2.1143983765504331e-07 0.0000000000000000e+00  5.9225294738430364e-08 4.0919104516099185e-07 0.0000000000000000e+00  3.5006820761156755e-07 -8.2509214689876582e-08 0.0000000000000000e+00  -1.7810479849534005e-07 -2.8701512236440662e-07 0.0000000000000000e+00  -3.3392686290934627e-08 2.3213396302891048e-07 0.0000000000000000e+00  2.6239678561641754e-07 -2.1489628235529465e-07 0.0000000000000000e+00  -3.0369339246047592e-07 8.0223255990655538e-08 0.0000000000000000e+00  -4.0978710542184872e-07 -6.3071070407205953e-08 0.0000000000000000e+00  1.2034845149263170e-07 -1.7759021630356550e-07 0.0000000000000000e+00  -3.3644629586218222e-07 6.7397000116586969e-08 0.0000000000000000e+00  -4.3828029484614932e-08 -1.5721775842159688e-07 0.0000000000000000e+00  3.1657653264877341e-07 2.7219811065066052e-07 0.0000000000000000e+00  -1.4684296273641551e-07 4.0352098648116520e-07 0.0000000000000000e+00  1.6784732221813029e-08 -4.1513166781094675e-07 0.0000000000000000e+00  2.1438358520728903e-07 5.9650538994750068e-08 0.0000000000000000e+00  4.2352268569883995e-07 -8.2926026033996858e-08 0.0000000000000000e+00  2.5528015459500769e-07 -3.4437913000399300e-07 0.0000000000000000e+00  3.3950872417142304e-07 -3.2569516912418044e-07 0.0000000000000000e+00  1.6916601022828023e-07 3.9530060376094091e-07 0.0000000000000000e+00  -1.3327701105772929e-07 -4.6385498293310365e-07 0.0000000000000000e+00  3.0570149992073845e-07 1.0040291111298842e-07 0.0000000000000000e+00  -1.4243188115823757e-07 4.5151790582232281e-07 0.0000000000000000e+00  2.2141660104513418e-08 -4.5334415838960255e-07 0.0000000000000000e+00  -3.3967716036836966e-07 -3.1854022531326255e-07 0.0000000000000000e+00  1.3462961482193312e-07 4.2909554307221975e-07 0.0000000000000000e+00  -1.5796659465863449e-07 -1.0911984125558217e-07 0.0000000000000000e+00  -4.2498742236600131e-07 1.5205193340566556e-07 0.0000000000000000e+00  -4.3760908371367314e-07 1.4435373793347067e-07 0.0000000000000000e+00  -4.0356855066824683e-07 -1.7144653771157742e-07 0.0000000000000000e+00  3.2746733692223881e-07 3.6130016217456072e-07 0.0000000000000000e+00  -3.9927686652722076e-07 -1.4659769323970728e-07 0.0000000000000000e+00  4.4536078492333600e-07 9.9729367110217992e-08 0.0000000000000000e+00  -1.9067422725973903e-07 2.7883809318589699e-07 0.0000000000000000e+00  2.1633087165226361e-07 -4.3096580223675695e-07 0.0000000000000000e+00  2.3972689191483792e-07 -6.4065053723157375e-08 0.0000000000000000e+00  1.2956906312348740e-07 -1.9144195637014699e-07 0.0000000000000000e+00  </DataArray> 
</PointData> 
</Piece>
</UnstructuredGrid>
</VTKFile>