<?xml version="1.0"?>
<VTKFile type="UnstructuredGrid"  version="0.1"  >
<UnstructuredGrid>
<Piece  NumberOfPoints="201" NumberOfCells="657">
<Points>
<DataArray  type="Float64"  NumberOfComponents="3"  format="ascii">-6.881233358952755 -3.583063560840133 -75.00169206438835  -6.146463682723798 -3.305902281543689 79.53585579369201  3950.363160509476 -4.901882690663246 84.68721297721385  7497.133568703965 -10.95914407928689 77.62184208160119  9960.885052725551 3.144978349763494 -9.861069588769027  11186.47135557382 -3.119172145765019 -37.73321186473484  11564.0851038585 -18.88193153633922 8.93927241755604  11188.09104688887 -16.40635262901202 47.43433291871801  9955.908270001812 -2.8117559394091 15.62914541830582  7500.313052464896 -8.455739541621867 -70.62575616525862  3952.133022200861 -3.146465747399576 -84.78980869526936  5016.161364225086 -3710.801252433809 70.10646921719405  4975.717138143536 2877.317434574029 -90.1511905430379  11092.29720533133 -3003.347764159486 -26.01605911934757  8564.193180716858 -3509.44248737057 -17.98721762055754  10359.68935749872 3137.369377653407 47.42598618813597  10341.67721631687 3094.822300820594 -46.59918259947085  5581.214049530789 3319.343508880934 74.02715887290873  1931.328609573188 -3317.272794804356 -84.10344618193295  8505.964027634755 -3238.813335812705 25.44031439373066  5959.217574834401 -6399.118486679117 41.7555312522336  8553.783463328351 -6048.533535933242 -14.45908162149968  5813.760453753306 -8564.202565050246 -56.29825415373537  7937.352543336869 -7737.776835240966 -50.7202406947829  4978.956451711181 -9808.829412570376 -52.65233885730129  7021.39669428618 -8697.72507059419 15.30282081646326  3684.332883161896 -10430.25894995122 14.50372000251809  5454.898199878492 -9234.230001225655 68.6231906567395  1990.870432447753 -10422.45255448736 56.73648354645235  3662.774092641149 -8908.928242387743 17.79816569045437  -132.4854594344285 -9570.070565413314 13.34192296262455  8387.25837471169 -7275.394395725945 41.9606177509435  8568.390935981888 3241.212156644188 -26.5067836266789  8413.41301711417 6082.405470456108 32.08208679178782  9743.708452154913 5574.781305048517 36.86208534935456  1399.46273819678 -7322.361620073941 -75.43162179184822  5163.454146694334 -6396.396380128823 -49.43136880917808  5960.684132537328 6055.9840794227 -39.05114390449586  5547.041561264157 8509.664226463179 24.04774382076161  11137.29751860009 -2942.852140776973 32.28708596930623  9814.130519943872 -6040.466631328023 14.70429340652337  10445.95584495012 -3132.767837223173 -28.38614884677048  1928.098312256763 3331.111895253736 83.5494581021764  8494.052191388961 3188.924561042011 23.9685484828849  8314.437310278727 6046.921878998193 -34.81803307860918  2475.618426344882 -10191.77905590208 -61.07736731819688  -1753.150646475216 -10564.78499709243 64.27707065114237  2589.444352894364 -6644.978900348304 82.91987492407344  9703.68214427237 5688.914133610471 -44.90576485479266  7277.364022975094 8205.950471886901 -56.81258520022102  5399.99777290268 8344.172805162698 -16.61515138791751  4120.33094861786 10037.91468257795 -41.60778165761604  1886.030458156041 9737.200551483793 -22.56721510284919  517.1035599041325 10820.02896729429 -41.75297554740385  -1919.762758322657 9977.06096712426 -21.48011568953348  -3034.362256297838 10512.16244506287 -41.33045244234715  -5478.20642081138 9192.644744620475 -46.2490271487562  -609.0502435962977 11079.15875157848 4.798851157383535  -3919.451333727689 -9105.793503538944 14.12732969558505  -5175.042648294285 -9624.873947573524 50.07953598529654  -6272.759821378893 9298.548476284155 -28.57208686197765  -8345.276494206038 7396.465180952149 -51.97048330013497  -8734.064173432593 7229.08745305794 0.5743631427736844  -10383.46696866064 4776.537962596478 -31.36722845232792  -10490.16539354465 4530.051851117796 18.65069471599634  -9496.546702113692 4696.298810602257 -37.15062621694761  -8608.619583797061 6856.088762410267 48.45303386460307  -11037.77800557466 2032.476352741757 -41.8762121621392  -9977.70483510948 3853.045471008932 34.60272841223841  -9856.69854278887 1388.045751202082 -12.68490252251439  -10714.70206953532 -1513.757775748707 -41.38392281214198  -7672.549660865341 6005.567104206901 -3.19589186641781  -1775.518236043188 -5095.475580364408 -82.1967232643342  -7282.481469014563 -7665.678636187852 23.82804573203541  -9008.236611254028 -2110.664123899592 16.70057421117451  -9390.448461319607 -4780.267197861188 -31.26514063326198  -11248.13216702658 1286.918438176699 38.5879287732019  -4167.624180543774 7993.909012894923 16.01065288820786  -8616.734925499928 2621.063222799948 -19.82389367363783  2714.610121564448 8145.470491879631 -29.05706173816537  -10738.83173516802 -3758.542031989381 -44.87727734213524  -7428.621293682095 861.8083241807292 65.21951704503579  -5776.45417830082 4750.243090754605 -69.59892585439718  -7017.409613978516 -5356.408873146982 24.57826710540849  -7090.072740320706 -7652.783211280627 -30.86617293521104  -5956.274226118318 8633.979747022304 33.82389111859257  -2913.896494015265 -10635.03140180391 19.24732688929993  -6104.351799843472 789.3255982025519 -85.78016285398303  -8905.102391612738 -1123.243425161333 -37.70871722208619  -4224.385420634984 -7949.106811036268 23.83741292858855  -4054.945382577009 -9675.774923758887 -66.16065049129594  -3748.996995480057 -5177.378981120115 72.8285370396361  5927.15121069788 9535.559598166223 -7.180062230532744  -7996.030133880198 -7959.276723611373 15.95216728948832  -9716.266344780572 -5412.725471772508 37.14437138786764  2164.370830875539 10062.26939790246 31.42767434661278  -812.4188337885853 9306.679031507199 -6.468372917881027  -285.1562936106479 7213.646948559382 -57.16970155521267  -3470.156157099507 3076.767667698711 -83.87991381157616  -5679.502403359233 -6550.201931826989 -28.33198766347238  2959.551971197213 7997.65118126873 27.44843989349516  -6570.818241448345 -9010.02502157886 -36.74284240524025  -935.1243697109951 6236.196629153464 78.47825196302443  -2103.007606814189 2660.85202027737 86.31230454686818  -1334.064025926662 10649.07388688066 41.88769654699971  -2703.58958413952 -1894.959814048585 -77.92241443321512  -884.4589121958907 -9721.577596146519 -11.00202726308345  -5830.196955552309 -3034.650038179533 -74.09174271673368  -8709.398328096881 -4720.059207967137 -4.792425290834871  -10485.82173262608 -2195.674615646847 53.71332267954719  -11054.99381422322 -2742.419568710283 34.02688955089033  -11522.08803883535 -372.0008184790124 -20.31563899271273  -4912.564372564961 5273.851125581269 67.38595106997104  -7292.388335759018 5695.246372427062 12.78473498274332  -1042.382608194029 -10682.04991042642 -52.53147194405904  -429.0310626166307 8852.684303561011 17.13673494123753  4689.944646128937 9863.374992343355 37.85256509940868  10387.7382323627 -2970.944931001186 30.5822383820834  629.7231293765601 -3474.116165062107 81.79175721453163  1846.195217808406 -10827.87506164194 -40.43719142200463  -3825.37995503121 7734.762816713332 -25.53171579398474  11090.90193998869 2790.57432159433 -30.63788151576222  7468.910031829834 8108.440971054026 54.35695773221511  8689.192673366351 7249.533559660047 -5.513813348488005  -8996.087219477278 -6672.451684648815 -33.92964163814945  -3844.533681640066 10454.29759666804 24.72677101349655  -6466.62268430005 9025.322321818163 35.13574191156589  -704.1967678563306 -7485.282476007527 62.20817174713369  -2984.841417401342 -1367.72680695798 81.43851479953491  -6293.891855695317 -2194.010890545943 77.58006596298139  2677.500523978268 10826.62058124716 -19.54064295886228  283.9928597175837 -10998.54369309016 28.19780131389821  6744.710340540159 -7436.424771466258 14.80809781419086  11096.20794118088 2836.095503689479 26.96466049545126  5580.641308723414 -3284.217628711492 -63.4179055762682  -9881.791437500498 -5910.18390559169 -2.550231072359718  -2277.315185510291 -8016.513173220099 -46.40244294056447  6149.198115791007 5884.757825595767 39.21322774404899  -10393.25488448188 937.7837931586894 28.06766025029606  2789.146113241053 -8921.53898182563 -4.902226469606006  3128.297023452981 5935.435444639501 -73.15592170765683  1656.035621427085 10821.25958997705 29.53759472655167  -7544.266973730268 7278.831893205581 -35.85413252596268  9871.069223867438 -5439.043443450157 -22.10781644071349  -200.9521495784218 3180.822857552295 -79.4346115475488  9129.588004563871 -5445.357303773124 23.47701919837735  -11230.02475052209 2646.84561337197 -1.348694189242215  -5991.96241881155 -9556.461834444326 -5.446483928817694  -3662.335902266266 -10334.09540454112 -56.74705863868915  10397.80198700393 4884.692735722399 -10.73950089580013  -2850.716326723808 6060.589068460318 -64.9159992338038  3545.752010799019 5489.722500683849 67.50042803584978  -4314.897343550577 911.4731843145012 81.60519235580847  -4332.235804323096 9923.553587951816 50.85114070648282  10040.55727654149 -5072.670120226614 35.26113122350644  -843.9165635123709 -11015.51804285254 -21.38362445136659  -8110.637197107884 3166.348630441324 38.10311343483193  -5595.386910316123 2713.943943452598 76.27285683135835  -3410.960425864851 9384.660039858885 28.8283846598398  -8190.999487066664 -7888.130460140055 -14.69721427003415  -7.324410809263 0.9279638797023735 0.7628514439990055  -4103.721760300145 -4851.266280421418 -1.84753813782402  6164.836797993771 1886.741613003753 -0.8598524082141876  -2471.134321014936 5094.437917391248 -16.70853066198454  4618.201065213714 -3610.558366480461 -12.654962282943  -3027.059233191005 528.0753160061557 35.06837511956675  -6348.50903130312 939.4734404042414 -3.670850277185773  1220.78864763668 5764.181132964786 14.46551402636437  4313.345626566242 -2845.115699702014 27.29070653735552  -3352.128452160156 -530.3991037859428 -31.70621966067591  3210.142474033252 4274.077185121457 -30.25995111261344  -1178.72443408198 -4881.411355202602 32.07830772126684  1044.048163237791 -7026.449751883372 -1.731254810513043  2551.869382166907 1868.663883109198 36.31078933603504  -1
[...]
<PointData  Vectors="Centrifugal"> 
<DataArray  type="Float64"  Name="Centrifugal"  NumberOfComponents="3" format="ascii">-1.6637124438506455e-07 -8.6629636321329829e-08 0.0000000000000000e+00  -1.4860632652879885e-07 -7.9928560434655519e-08 0.0000000000000000e+00  9.5510034394014924e-05 -1.1851542892590769e-07 0.0000000000000000e+00  1.8126219183126711e-04 -2.6496506407442096e-07 0.0000000000000000e+00  2.4082962384095087e-04 7.6037816815677604e-08 0.0000000000000000e+00  2.7046127672492899e-04 -7.5413886475372214e-08 0.0000000000000000e+00  2.7959104546286702e-04 -4.5651851669977736e-07 0.0000000000000000e+00  2.7050043686462202e-04 -3.9666512677660461e-07 0.0000000000000000e+00  2.4070929751402804e-04 -6.7981321101117554e-08 0.0000000000000000e+00  1.8133906390378901e-04 -2.0443891906462416e-07 0.0000000000000000e+00  9.5552825282889563e-05 -7.6073778420658994e-08 0.0000000000000000e+00  1.2127840529002863e-04 -8.9718018533667491e-05 0.0000000000000000e+00  1.2030056369239940e-04 6.9566436292713225e-05 0.0000000000000000e+00  2.6818437813023706e-04 -7.2613538704392175e-05 0.0000000000000000e+00  2.0706106046760572e-04 -8.4849660411816705e-05 0.0000000000000000e+00  2.5047172795080532e-04 7.5853850643888763e-05 0.0000000000000000e+00  2.5003623881882233e-04 7.4825167303509008e-05 0.0000000000000000e+00  1.3493998505248694e-04 8.0253536147770310e-05 0.0000000000000000e+00  4.6694760565428702e-05 -8.0203471390521985e-05 0.0000000000000000e+00  2.0565322321628690e-04 -7.8306515257035340e-05 0.0000000000000000e+00  1.4407917763703703e-04 -1.5471489630722351e-04 0.0000000000000000e+00  2.0680937918530053e-04 -1.4623861720496376e-04 0.0000000000000000e+00  1.4056238333918876e-04 -2.0706128735763292e-04 0.0000000000000000e+00  1.9190560047490800e-04 -1.8708035227114778e-04 0.0000000000000000e+00  1.2037888230202807e-04 -2.3715329363257839e-04 0.0000000000000000e+00  1.6976004800500579e-04 -2.1028953209836052e-04 0.0000000000000000e+00  8.9078078670724113e-05 -2.5217792657823495e-04 0.0000000000000000e+00  1.3188597947006277e-04 -2.2326089758936490e-04 0.0000000000000000e+00  4.8134334933548097e-05 -2.5198918719682883e-04 0.0000000000000000e+00  8.8556840308460494e-05 -2.1539590368560604e-04 0.0000000000000000e+00  -3.2031715245281908e-06 -2.3138069380383068e-04 0.0000000000000000e+00  2.0278321341395101e-04 -1.7590108573111349e-04 0.0000000000000000e+00  2.0716255183269046e-04 7.8364512826071793e-05 0.0000000000000000e+00  2.0341556813525762e-04 1.4705755700867906e-04 0.0000000000000000e+00  2.3557882948426151e-04 1.3478445716257271e-04 0.0000000000000000e+00  3.3835556081147313e-05 -1.7703663733247289e-04 0.0000000000000000e+00  1.2483958135107054e-04 -1.5464908248715700e-04 0.0000000000000000e+00  1.4411463538382017e-04 1.4641875296363170e-04 0.0000000000000000e+00  1.3411377860081142e-04 2.0574268489436705e-04 0.0000000000000000e+00  2.6927237467470796e-04 -7.1150903793326157e-05 0.0000000000000000e+00  2.3728146132931792e-04 -1.4604357935528000e-04 0.0000000000000000e+00  2.5255743876997797e-04 -7.5742596749778343e-05 0.0000000000000000e+00  4.6616659946508698e-05 8.0538066693838935e-05 0.0000000000000000e+00  2.0536522440622594e-04 7.7100327774867283e-05 0.0000000000000000e+00  2.0102257974914515e-04 1.4619965131675467e-04 0.0000000000000000e+00  5.9854345395465389e-05 -2.4641207114736984e-04 0.0000000000000000e+00  -4.2386857040541539e-05 -2.5543043447872124e-04 0.0000000000000000e+00  6.2606375453954930e-05 -1.6065919449236591e-04 0.0000000000000000e+00  2.3461109211754465e-04 1.3754390735449707e-04 0.0000000000000000e+00  1.7594870645828813e-04 1.9839963566904597e-04 0.0000000000000000e+00  1.3055862260294635e-04 2.0174151064833017e-04 0.0000000000000000e+00  9.9619436144818038e-05 2.4269201023370231e-04 0.0000000000000000e+00  4.5599563029392858e-05 2.3542148450313470e-04 0.0000000000000000e+00  1.2502288216291973e-05 2.6160160390854674e-04 0.0000000000000000e+00  -4.6415126818896932e-05 2.4122071753988441e-04 0.0000000000000000e+00  -7.3363392601486798e-05 2.5415815100754901e-04 0.0000000000000000e+00  -1.3244951474327950e-04 2.2225546868896701e-04 0.0000000000000000e+00  -1.4725332165679514e-05 2.6786672273531958e-04 0.0000000000000000e+00  -9.4762662691933364e-05 -2.2015561996979461e-04 0.0000000000000000e+00  -1.2511976272716534e-04 -2.3270570436674721e-04 0.0000000000000000e+00  -1.5165985554807193e-04 2.2481595962174167e-04 0.0000000000000000e+00  -2.0176819512623940e-04 1.7882827859698965e-04 0.0000000000000000e+00  -2.1116812194464044e-04 1.7478149811164654e-04 0.0000000000000000e+00  -2.5104661192162225e-04 1.1548490266729572e-04 0.0000000000000000e+00  -2.5362631657569905e-04 1.0952547665291895e-04 0.0000000000000000e+00  -2.2960306819646179e-04 1.1354491794808667e-04 0.0000000000000000e+00  -2.0813518127974030e-04 1.6576331008052718e-04 0.0000000000000000e+00  -2.6686623839666812e-04 4.9140263430957888e-05 0.0000000000000000e+00  -2.4123628467913585e-04 9.3157132776193756e-05 0.0000000000000000e+00  -2.3831065109259180e-04 3.3559521505025302e-05 0.0000000000000000e+00  -2.5905505939635123e-04 -3.6598928086226947e-05 0.0000000000000000e+00  -1.8550332013133898e-04 1.4519979489794287e-04 0.0000000000000000e+00  -4.2927650168197456e-05 -1.2319602734238278e-04 0.0000000000000000e+00  -1.7607243367712383e-04 -1.8533719570768339e-04 0.0000000000000000e+00  -2.1779693501883897e-04 -5.1030650822964956e-05 0.0000000000000000e+00  -2.2703787451282977e-04 -1.1557506637476334e-04 0.0000000000000000e+00  -2.7195208300863702e-04 3.1114512589950284e-05 0.0000000000000000e+00  -1.0076286980504533e-04 1.9327299636566866e-04 0.0000000000000000e+00  -2.0833139021893588e-04 6.3370841714265044e-05 0.0000000000000000e+00  6.5632574915852377e-05 1.9693737897619567e-04 0.0000000000000000e+00  -2.5963845517563923e-04 -9.0872272791334721e-05 0.0000000000000000e+00  -1.7960573406324064e-04 2.0836398918051378e-05 0.0000000000000000e+00  -1.3966040964542845e-04 1.1484915754413617e-04 0.0000000000000000e+00  -1.6966365024058660e-04 -1.2950475055480620e-04 0.0000000000000000e+00  -1.7142046535204158e-04 -1.8502541615062165e-04 0.0000000000000000e+00  -1.4400801472727788e-04 2.0874832745477857e-04 0.0000000000000000e+00  -7.0450827697599253e-05 -2.5712881922398219e-04 0.0000000000000000e+00  -1.4758816510455333e-04 1.9083945442291842e-05 0.0000000000000000e+00  -2.1530340405348088e-04 -2.7157254614579289e-05 0.0000000000000000e+00  -1.0213521654206275e-04 -1.9218978966628920e-04 0.0000000000000000e+00  -9.8038574485347652e-05 -2.3393636438169221e-04 0.0000000000000000e+00  -9.0641497359240139e-05 -1.2517624949040342e-04 0.0000000000000000e+00  1.4330389207033601e-04 2.3054630376554485e-04 0.0000000000000000e+00  -1.9332427983759925e-04 -1.9243567305988229e-04 0.0000000000000000e+00  -2.3491534703652840e-04 -1.3086634695825782e-04 0.0000000000000000e+00  5.2329146485778904e-05 2.4328084715926758e-04 0.0000000000000000e+00  -1.9642282900260180e-05 2.2501253638631838e-04 0.0000000000000000e+00  -6.8943756064468669e-06 1.7440818480960377e-04 0.0000000000000000e+00  -8.3899813877980653e-05 7.4388650821257014e-05 0.0000000000000000e+00  -1.3731635493881286e-04 -1.5836772123903982e-04 0.0000000000000000e+00  7.1554664488989643e-05 1.9336347276380442e-04 0.0000000000000000e+00  -1.5886617273856233e-04 -2.1784017436790443e-04 0.0000000000000000e+00  -2.2609000004510874e-05 1.5077584777331468e-04 0.0000000000000000e+00  -5.0845535130950760e-05 6.4332836665401450e-05 0.0000000000000000e+00  -3.2254376578289127e-05 2.5746833186577283e-04 0.0000000000000000e+00  -6.5366125512157590e-05 -4.5815452823257570e-05 0.0000000000000000e+00  -2.1384034249911271e-05 -2.3504375998997779e-04 0.0000000000000000e+00  -1.4095977739850794e-04 -7.3370350457334862e-05 0.0000000000000000e+00  -2.1057176266306310e-04 -1.1411938573176331e-04 0.0000000000000000e+00  -2.5352129757190791e-04 -5.3085994764959673e-05 0.0000000000000000e+00  -2.6728247417280674e-04 -6.6304938732913228e-05 0.0000000000000000e+00  -2.7857566005098705e-04 -8.9940619441555602e-06 0.0000000000000000e+00  -1.1877368563906383e-04 1.2750870791540571e-04 0.0000000000000000e+00  -1.7631195727155116e-04 1.3769700526539537e-04 0.0000000000000000e+00  -2.5202239570170234e-05 -2.5826561075256434e-04 0.0000000000000000e+00  -1.0372912535294705e-05 2.1403606401681425e-04 0.0000000000000000e+00  1.1339128992890628e-04 2.3847207116985228e-04 0.0000000000000000e+00  2.5114988053934564e-04 -7.1830118146922850e-05 0.0000000000000000e+00  1.5225151537132397e-05 -8.3995557099892488e-05 0.0000000000000000e+00  4.4636445204244297e-05 -2.6179130311101338e-04 0.0000000000000000e+00  -9.2488248859653072e-05 1.8700748073971038e-04 0.0000000000000000e+00  2.6815064405682365e-04 6.7469201844256682e-05 0.0000000000000000e+00  1.8057981634626920e-04 1.9604209652646987e-04 0.0000000000000000e+00  2.1008323978558227e-04 1.7527583452210934e-04 0.0000000000000000e+00  -2.1750319270216666e-04 -1.6132341863248312e-04 0.0000000000000000e+00  -9.2951338710599673e-05 2.5275912174471026e-04 0.0000000000000000e+00  -1.5634698125094890e-04 2.1821002534429035e-04 0.0000000000000000e+00  -1.7025740364953725e-05 -1.8097566165035643e-04 0.0000000000000000e+00  -7.2166100900939635e-05 -3.3068259566628149e-05 0.0000000000000000e+00  -1.5217077599826090e-04 -5.3045769996969361e-05 0.0000000000000000e+00  6.4735356407631119e-05 2.6176097287027738e-04 0.0000000000000000e+00  6.8662466454812893e-06 -2.6591764952456625e-04 0.0000000000000000e+00  1.6307045464639686e-04 -1.7979440290235118e-04 0.0000000000000000e+00  2.6827893007402517e-04 6.8569791711797589e-05 0.0000000000000000e+00  1.3492613759290238e-04 -7.9404279032211874e-05 0.0000000000000000e+00  -2.3891733537440934e-04 -1.4289366449671259e-04 0.0000000000000000e+00  -5.5059862310494279e-05 -1.9381950919053676e-04 0.0000000000000000e+00  1.4867243837375836e-04 1.4227892461679694e-04 0.0000000000000000e+00  -2.5128325957621749e-04 2.2673298301816114e-05 0.0000000000000000e+00  6.7434671290127711e-05 -2.1570080025042993e-04 0.0000000000000000e+00  7.5634503503762515e-05 1.4350418440715242e-04 0.0000000000000000e+00  4.0038855349141096e-05 2.6163135732867079e-04 0.0000000000000000e+00  -1.8240176127140668e-04 1.7598419593874956e-04 0.0000000000000000e+00  2.3865809870394055e-04 -1.3150265057845187e-04 0.0000000000000000e+00  -4.8585271626801397e-06 7.6904448574015980e-05 0.0000000000000000e+00  2.2073091229582643e-04 -1.3165530414271991e-04 0.0000000000000000e+00  -2.7151429035442718e-04 6.3994196304777390e-05 0.0000000000000000e+00  -1.4487086717225446e-04 -2.3105166826615359e-04 0.0000000000000000e+00  -8.8546245946353387e-05 -2.4985292931687341e-04 0.0000000000000000e+00  2.5139319729602407e-04 1.1809981822857838e-04 0.0000000000000000e+00  -6.8923287138455486e-05 1.4653009023655995e-04 0.0000000000000000e+00  8.5727535100946410e-05 1.3272794514069188e-04 0.0000000000000000e+00  -1.0432357151589288e-04 2.2037172696768723e-05 0.0000000000000000e+00  -1.0474277271776649e-04 2.3992704113155283e-04 0.0000000000000000e+00  2.4275590163560414e-04 -1.2264464758471739e-04 0.0000000000000000e+00  -2.0403820289866676e-05 -2.6632804742059423e-04 0.0000000000000000e+00  -1.9609519585365011e-04 7.6554497475085322e-05 0.0000000000000000e+00  -1.3528264985723231e-04 6.5616468372785234e-05 0.0000000000000000e+00  -8.2468607151794062e-05 2.2689792476382386e-04 0.0000000000000000e+00  -1.9803815774502073e-04 -1.9071553195005190e-04 0.0000000000000000e+00  -1.7708618167096701e-07 2.2435877023371079e-08 0.0000000000000000e+00  -9.9217866951550217e-05 -1.1729164901330665e-04 0.0000000000000000e+00  1.4905054312372066e-04 4.5616756998960862e-05 0.0000000000000000e+00  -5.9745930792329495e-05 1.2317093921194325e-04 0.0000000000000000e+00  1.1165670715705847e-04 -8.7294392883026291e-05 0.0000000000000000e+00  -7.3186823521690104e-05 1.2767558207958096e-05 0.0000000000000000e+00  -1.5349128454617247e-04 2.2714149803305753e-05 0.0000000000000000e+00  2.9515657418333410e-05 1.3936367769078691e-04 0.0000000000000000e+00  1.0428605482780103e-04 -6.8787877795631799e-05 0.0000000000000000e+00  -8.1046195185174321e-05 -1.2823741662935275e-05 0.0000000000000000e+00  7.7613324559522938e-05 1.0333664080164661e-04 0.0000000000000000e+00  -2.8498648520637820e-05 -1.1802048254383953e-04 0.0000000000000000e+00  2.5242508581664006e-05 -1.6988221847017495e-04 0.0000000000000000e+00  6.1697905371404409e-05 4.5179682093733230e-05 0.0000000000000000e+00  -2.4361290812167813e-05 -1.3273325800724630e-04 0.0000000000000000e+00  5.3984779602871324e-05 -1.6118386617762223e-05 0.0000000000000000e+00  -1.0493574028311879e-04 1.3009580040147057e-04 0.0000000000000000e+00  -1.5399802785847353e-04 -6.1796153372454916e-05 0.0000000000000000e+00  1.5659328285900262e-04 7.7110540888709244e-06 0.0000000000000000e+00  -2.1115426514570797e-05 8.0181336392898397e-05 0.0000000000000000e+00  3.2063891823328403e-05 1.8184043052089016e-04 0.0000000000000000e+00  1.3250909344275611e-04 1.0754148241745859e-04 0.0000000000000000e+00  1.3190277154740614e-04 1.5073794873853597e-04 0.0000000000000000e+00  -1.5251001072266133e-04 6.8631975058631371e-05 0.0000000000000000e+00  1.8673507716439986e-04 -5.6752091083269963e-05 0.0000000000000000e+00  -3.7272634494155057e-05 1.1955840478791413e-04 0.0000000000000000e+00  -1.7997263044094883e-04 -6.2663070517586893e-05 0.0000000000000000e+00  1.7645510356363304e-04 1.0346770256888549e-05 0.0000000000000000e+00  1.3020323605780851e-04 -1.4760336132266287e-04 0.0000000000000000e+00  -1.6788040227723607e-04 5.5121364279507658e-05 0.0000000000000000e+00  3.8558372042939065e-05 -5.8502591837774586e-05 0.0000000000000000e+00  -6.0681939243278480e-05 -1.8567871950152695e-04 0.0000000000000000e+00  -5.8487829067305718e-05 -1.9505100086724227e-04 0.0000000000000000e+00  6.9503209500500608e-05 -1.7278448447409652e-04 0.0000000000000000e+00  -1.5111235254140147e-04 1.4655937975910664e-04 0.0000000000000000e+00  5.8832838488641531e-05 -1.6859138414562406e-04 0.0000000000000000e+00  -4.1887730071259151e-05 1.9780247990411410e-04 0.0000000000000000e+00  -1.0192923671364638e-04 -7.5283455595593862e-05 0.0000000000000000e+00  1.7494543367178192e-04 9.6269097882915772e-05 0.0000000000000000e+00  2.2255876632954439e-05 8.9860067261762468e-05 0.0000000000000000e+00  6.6213580913986793e-05 4.8392702933361326e-05 0.0000000000000000e+00  </DataArray> 
</PointData> 
</Piece>
</UnstructuredGrid>
</VTKFile>