<?xml version="1.0"?>
<VTKFile type="UnstructuredGrid"  version="0.1"  >
<UnstructuredGrid>
<Piece  NumberOfPoints="201" NumberOfCells="657">
<Points>
<DataArray  type="Float64"  NumberOfComponents="3"  format="ascii">-6.881233358952755 -3.583063560840133 -75.00169206438835  -6.146463682723798 -3.305902281543689 79.53585579369201  3950.363160509476 -4.901882690663246 84.68721297721385  7497.133568703965 -10.95914407928689 77.62184208160119  9960.885052725551 3.144978349763494 -9.861069588769027  11186.47135557382 -3.119172145765019 -37.73321186473484  11564.0851038585 -18.88193153633922 8.93927241755604  11188.09104688887 -16.40635262901202 47.43433291871801  9955.908270001812 -2.8117559394091 15.62914541830582  7500.313052464896 -8.455739541621867 -70.62575616525862  3952.133022200861 -3.146465747399576 -84.78980869526936  5016.161364225086 -3710.801252433809 70.10646921719405  4975.717138143536 2877.317434574029 -90.1511905430379  11092.29720533133 -3003.347764159486 -26.01605911934757  8564.193180716858 -3509.44248737057 -17.98721762055754  10359.68935749872 3137.369377653407 47.42598618813597  10341.67721631687 3094.822300820594 -46.59918259947085  5581.214049530789 3319.343508880934 74.02715887290873  1931.328609573188 -3317.272794804356 -84.10344618193295  8505.964027634755 -3238.813335812705 25.44031439373066  5959.217574834401 -6399.118486679117 41.7555312522336  8553.783463328351 -6048.533535933242 -14.45908162149968  5813.760453753306 -8564.202565050246 -56.29825415373537  7937.352543336869 -7737.776835240966 -50.7202406947829  4978.956451711181 -9808.829412570376 -52.65233885730129  7021.39669428618 -8697.72507059419 15.30282081646326  3684.332883161896 -10430.25894995122 14.50372000251809  5454.898199878492 -9234.230001225655 68.6231906567395  1990.870432447753 -10422.45255448736 56.73648354645235  3662.774092641149 -8908.928242387743 17.79816569045437  -132.4854594344285 -9570.070565413314 13.34192296262455  8387.25837471169 -7275.394395725945 41.9606177509435  8568.390935981888 3241.212156644188 -26.5067836266789  8413.41301711417 6082.405470456108 32.08208679178782  9743.708452154913 5574.781305048517 36.86208534935456  1399.46273819678 -7322.361620073941 -75.43162179184822  5163.454146694334 -6396.396380128823 -49.43136880917808  5960.684132537328 6055.9840794227 -39.05114390449586  5547.041561264157 8509.664226463179 24.04774382076161  11137.29751860009 -2942.852140776973 32.28708596930623  9814.130519943872 -6040.466631328023 14.70429340652337  10445.95584495012 -3132.767837223173 -28.38614884677048  1928.098312256763 3331.111895253736 83.5494581021764  8494.052191388961 3188.924561042011 23.9685484828849  8314.437310278727 6046.921878998193 -34.81803307860918  2475.618426344882 -10191.77905590208 -61.07736731819688  -1753.150646475216 -10564.78499709243 64.27707065114237  2589.444352894364 -6644.978900348304 82.91987492407344  9703.68214427237 5688.914133610471 -44.90576485479266  7277.364022975094 8205.950471886901 -56.81258520022102  5399.99777290268 8344.172805162698 -16.61515138791751  4120.33094861786 10037.91468257795 -41.60778165761604  1886.030458156041 9737.200551483793 -22.56721510284919  517.1035599041325 10820.02896729429 -41.75297554740385  -1919.762758322657 9977.06096712426 -21.48011568953348  -3034.362256297838 10512.16244506287 -41.33045244234715  -5478.20642081138 9192.644744620475 -46.2490271487562  -609.0502435962977 11079.15875157848 4.798851157383535  -3919.451333727689 -9105.793503538944 14.12732969558505  -5175.042648294285 -9624.873947573524 50.07953598529654  -6272.759821378893 9298.548476284155 -28.57208686197765  -8345.276494206038 7396.465180952149 -51.97048330013497  -8734.064173432593 7229.08745305794 0.5743631427736844  -10383.46696866064 4776.537962596478 -31.36722845232792  -10490.16539354465 4530.051851117796 18.65069471599634  -9496.546702113692 4696.298810602257 -37.15062621694761  -8608.619583797061 6856.088762410267 48.45303386460307  -11037.77800557466 2032.476352741757 -41.8762121621392  -9977.70483510948 3853.045471008932 34.60272841223841  -9856.69854278887 1388.045751202082 -12.68490252251439  -10714.70206953532 -1513.757775748707 -41.38392281214198  -7672.549660865341 6005.567104206901 -3.19589186641781  -1775.518236043188 -5095.475580364408 -82.1967232643342  -7282.481469014563 -7665.678636187852 23.82804573203541  -9008.236611254028 -2110.664123899592 16.70057421117451  -9390.448461319607 -4780.267197861188 -31.26514063326198  -11248.13216702658 1286.918438176699 38.5879287732019  -4167.624180543774 7993.909012894923 16.01065288820786  -8616.734925499928 2621.063222799948 -19.82389367363783  2714.610121564448 8145.470491879631 -29.05706173816537  -10738.83173516802 -3758.542031989381 -44.87727734213524  -7428.621293682095 861.8083241807292 65.21951704503579  -5776.45417830082 4750.243090754605 -69.59892585439718  -7017.409613978516 -5356.408873146982 24.57826710540849  -7090.072740320706 -7652.783211280627 -30.86617293521104  -5956.274226118318 8633.979747022304 33.82389111859257  -2913.896494015265 -10635.03140180391 19.24732688929993  -6104.351799843472 789.3255982025519 -85.78016285398303  -8905.102391612738 -1123.243425161333 -37.70871722208619  -4224.385420634984 -7949.106811036268 23.83741292858855  -4054.945382577009 -9675.774923758887 -66.16065049129594  -3748.996995480057 -5177.378981120115 72.8285370396361  5927.15121069788 9535.559598166223 -7.180062230532744  -7996.030133880198 -7959.276723611373 15.95216728948832  -9716.266344780572 -5412.725471772508 37.14437138786764  2164.370830875539 10062.26939790246 31.42767434661278  -812.4188337885853 9306.679031507199 -6.468372917881027  -285.1562936106479 7213.646948559382 -57.16970155521267  -3470.156157099507 3076.767667698711 -83.87991381157616  -5679.502403359233 -6550.201931826989 -28.33198766347238  2959.551971197213 7997.65118126873 27.44843989349516  -6570.818241448345 -9010.02502157886 -36.74284240524025  -935.1243697109951 6236.196629153464 78.47825196302443  -2103.007606814189 2660.85202027737 86.31230454686818  -1334.064025926662 10649.07388688066 41.88769654699971  -2703.58958413952 -1894.959814048585 -77.92241443321512  -884.4589121958907 -9721.577596146519 -11.00202726308345  -5830.196955552309 -3034.650038179533 -74.09174271673368  -8709.398328096881 -4720.059207967137 -4.792425290834871  -10485.82173262608 -2195.674615646847 53.71332267954719  -11054.99381422322 -2742.419568710283 34.02688955089033  -11522.08803883535 -372.0008184790124 -20.31563899271273  -4912.564372564961 5273.851125581269 67.38595106997104  -7292.388335759018 5695.246372427062 12.78473498274332  -1042.382608194029 -10682.04991042642 -52.53147194405904  -429.0310626166307 8852.684303561011 17.13673494123753  4689.944646128937 9863.374992343355 37.85256509940868  10387.7382323627 -2970.944931001186 30.5822383820834  629.7231293765601 -3474.116165062107 81.79175721453163  1846.195217808406 -10827.87506164194 -40.43719142200463  -3825.37995503121 7734.762816713332 -25.53171579398474  11090.90193998869 2790.57432159433 -30.63788151576222  7468.910031829834 8108.440971054026 54.35695773221511  8689.192673366351 7249.533559660047 -5.513813348488005  -8996.087219477278 -6672.451684648815 -33.92964163814945  -3844.533681640066 10454.29759666804 24.72677101349655  -6466.62268430005 9025.322321818163 35.13574191156589  -704.1967678563306 -7485.282476007527 62.20817174713369  -2984.841417401342 -1367.72680695798 81.43851479953491  -6293.891855695317 -2194.010890545943 77.58006596298139  2677.500523978268 10826.62058124716 -19.54064295886228  283.9928597175837 -10998.54369309016 28.19780131389821  6744.710340540159 -7436.424771466258 14.80809781419086  11096.20794118088 2836.095503689479 26.96466049545126  5580.641308723414 -3284.217628711492 -63.4179055762682  -9881.791437500498 -5910.18390559169 -2.550231072359718  -2277.315185510291 -8016.513173220099 -46.40244294056447  6149.198115791007 5884.757825595767 39.21322774404899  -10393.25488448188 937.7837931586894 28.06766025029606  2789.146113241053 -8921.53898182563 -4.902226469606006  3128.297023452981 5935.435444639501 -73.15592170765683  1656.035621427085 10821.25958997705 29.53759472655167  -7544.266973730268 7278.831893205581 -35.85413252596268  9871.069223867438 -5439.043443450157 -22.10781644071349  -200.9521495784218 3180.822857552295 -79.4346115475488  9129.588004563871 -5445.357303773124 23.47701919837735  -11230.02475052209 2646.84561337197 -1.348694189242215  -5991.96241881155 -9556.461834444326 -5.446483928817694  -3662.335902266266 -10334.09540454112 -56.74705863868915  10397.80198700393 4884.692735722399 -10.73950089580013  -2850.716326723808 6060.589068460318 -64.9159992338038  3545.752010799019 5489.722500683849 67.50042803584978  -4314.897343550577 911.4731843145012 81.60519235580847  -4332.235804323096 9923.553587951816 50.85114070648282  10040.55727654149 -5072.670120226614 35.26113122350644  -843.9165635123709 -11015.51804285254 -21.38362445136659  -8110.637197107884 3166.348630441324 38.10311343483193  -5595.386910316123 2713.943943452598 76.27285683135835  -3410.960425864851 9384.660039858885 28.8283846598398  -8190.999487066664 -7888.130460140055 -14.69721427003415  -7.324410809263 0.9279638797023735 0.7628514439990055  -4103.721760300145 -4851.266280421418 -1.84753813782402  6164.836797993771 1886.741613003753 -0.8598524082141876  -2471.134321014936 5094.437917391248 -16.70853066198454  4618.201065213714 -3610.558366480461 -12.654962282943  -3027.059233191005 528.0753160061557 35.06837511956675  -6348.50903130312 939.4734404042414 -3.670850277185773  1220.78864763668 5764.181132964786 14.46551402636437  4313.345626566242 -2845.115699702014 27.29070653735552  -3352.128452160156 -530.3991037859428 -31.70621966067591  3210.142474033252 4274.077185121457 -30.25995111261344  -1178.72443408198 -4881.411355202602 32.07830772126684  1044.048163237791 -7026.449751883372 -1.731254810513043  2551.869382166907 1868.663883109198 36.31078933603504  -1
[...]
<PointData  Vectors="Velocity"> 
<DataArray  type="Float64"  Name="Velocity"  NumberOfComponents="3" format="ascii">-7.0373792636175154e-07 -2.1379750904726667e-07 -4.4252294912271045e-05  -6.1098444598291351e-07 -2.8346235547954394e-07 4.5187300626263696e-05  1.9409328696260914e-04 -8.3648091717439665e-07 4.4032884396564088e-05  3.6906266135009971e-04 -1.4834919776359511e-06 4.0082562417380673e-05  4.7176399236514605e-04 3.8516022626643280e-07 3.1370013030491731e-05  5.0332384046743693e-04 -3.9215365506035358e-07 1.6747249835605011e-05  5.0980946139708456e-04 -1.9190452946880584e-06 6.3338495107297685e-07  5.0309999314946221e-04 -1.4745122092529267e-06 -1.5269550602511049e-05  4.7136780781812607e-04 -1.8996186307376349e-07 -3.0165583077910695e-05  3.6971084754752157e-04 -1.0837807766957023e-06 -3.9341409903840825e-05  1.9433709475687215e-04 -6.8335266671593620e-07 -4.3550416357717300e-05  2.4808956796133698e-04 -1.8259352974274581e-04 4.1036532073186466e-05  2.4495479332538583e-04 1.4145904294107003e-04 -4.3645100783268083e-05  4.9565707470636126e-04 -1.3343146432436492e-04 8.3180142496714152e-06  4.1167350159779085e-04 -1.6811975112304191e-04 -3.3702386365789619e-05  4.7535722885748590e-04 1.4401685180976886e-04 -2.1783574014494273e-05  4.7589457306041394e-04 1.4042959240402863e-04 2.1872494848385694e-05  2.7503122339484696e-04 1.6349315257105078e-04 4.0900888542063011e-05  9.5435594754193767e-05 -1.6274316530561091e-04 -4.4109597228146109e-05  4.0909434103848254e-04 -1.5541772421291179e-04 3.4589673672608065e-05  2.8908149908719188e-04 -3.0947346106732261e-04 3.6336640010808706e-05  3.9863797894867530e-04 -2.8090133490337252e-04 2.7082057185018381e-05  2.6842125122258340e-04 -3.9340285575741843e-04 2.3112936945607503e-05  3.5436111667526779e-04 -3.4120818964275773e-04 1.1575040943225434e-05  2.2178211537882155e-04 -4.3022949318405058e-04 8.3913686862073485e-06  3.0966395587950359e-04 -3.7696828441842586e-04 -2.6225563071114845e-06  1.6237802432841314e-04 -4.5506065862016060e-04 -4.5668079262821079e-06  2.4599736915877660e-04 -4.1241368676215949e-04 -1.6524022259542882e-05  9.0706897037861941e-05 -4.6950284918520838e-04 -1.7727720214187166e-05  1.7415322812712914e-04 -4.2329389491608242e-04 -3.0254348263876273e-05  -5.6883125977291760e-06 -4.5490593214056452e-04 -3.0363127500420944e-05  3.7887047165475302e-04 -3.2677323516873478e-04 -1.5100507542762243e-05  4.1587439458764012e-04 1.5571954000736282e-04 -3.4327224387416496e-05  3.9393747388317843e-04 2.8204287255726113e-04 -2.6227884859056756e-05  4.3442975153787231e-04 2.4630682043198088e-04 -1.2319554123156648e-05  6.8154042847727182e-05 -3.5888749004626773e-04 -3.9289637857954345e-05  2.5345063414605387e-04 -3.1202910070393479e-04 -3.6504905025164872e-05  2.8923655892823823e-04 2.9437318330269871e-04 -3.6810108168777709e-05  2.5885309214226075e-04 3.9498933277371635e-04 -2.7084135631314245e-05  4.9806277531007652e-04 -1.3112425194554146e-04 -8.0784938215190035e-06  4.3823980306098543e-04 -2.6777253437935982e-04 -3.2431168701831005e-07  4.8250046584803356e-04 -1.4330391825727093e-04 2.3161807074420665e-05  9.4723176365432425e-05 1.6420997828261072e-04 4.3978776275458497e-05  4.1306074446338935e-04 1.5469984613947270e-04 3.4499031894755530e-05  3.8802562165049683e-04 2.8064352583483581e-04 2.6209309795701244e-05  1.1338035898612021e-04 -4.6338889701206994e-04 1.9811713730222859e-05  -8.1268135100049659e-05 -4.7656876037277670e-04 -1.6105997418797890e-05  1.2805454349380739e-04 -3.2537983067948016e-04 4.1439253396603052e-05  4.3316553170852292e-04 2.5300733882334728e-04 1.1465751502476035e-05  3.2668989737662089e-04 3.6494922004631466e-04 1.4401740382430691e-05  2.5458768341681144e-04 3.9018374116590735e-04 2.8707313187318549e-05  1.8705705188446474e-04 4.5081704993542624e-04 1.6103704816375864e-05  8.8955943922711822e-05 4.5386542910861200e-04 2.7835911726578156e-05  2.2770850188179217e-05 4.8359988160886808e-04 1.4830783729496682e-05  -9.0193791333953045e-05 4.6245713120218458e-04 2.6214823936286836e-05  -1.3576079811531414e-04 4.6494998839298728e-04 1.1347704487526856e-05  -2.5096115410509897e-04 4.1675814494890253e-04 1.9815043692842360e-05  -2.8693453890447076e-05 4.8739957611941412e-04 -1.0289937950066323e-06  -1.8500647396627610e-04 -4.2760771763684029e-04 -2.8794686738922835e-05  -2.3214659584744885e-04 -4.3006934731852289e-04 -1.4129150997255413e-05  -2.7962404290432009e-04 4.0914623101162995e-04 4.9775414218292008e-06  -3.7525868721143961e-04 3.3168013522351858e-04 1.2992659296417696e-05  -3.8554643123166074e-04 3.1737482014956311e-04 -1.7860805431148202e-06  -4.6415687847459886e-04 2.0956124679447980e-04 8.0069204317372867e-06  -4.6725611145826182e-04 1.9861698983810071e-04 -8.1464856202279626e-06  -4.3923405284749351e-04 2.1494492638435457e-04 2.4291085672923046e-05  -3.9011961695946585e-04 3.0877117244787017e-04 -1.7543445056757247e-05  -4.9654181134653962e-04 9.1969499788214110e-05 1.5468638170787867e-05  -4.5975800667867465e-04 1.7577201071681400e-04 -2.3736982246140535e-05  -4.6796427649206017e-04 6.6983368710796587e-05 3.0688290437623023e-05  -4.9050828178590447e-04 -7.0304640844069850e-05 2.1864479053094542e-05  -3.6659562756051446e-04 2.8427253816842363e-04 -3.1341733091635862e-05  -8.8241616247641686e-05 -2.5013846788166815e-04 -4.2420361513016311e-05  -3.3738803416309443e-04 -3.5307817596206848e-04 -2.4368360529753456e-05  -4.3576433719928282e-04 -1.0113075627802540e-04 3.3649719879593398e-05  -4.3666984489952712e-04 -2.2050799041433889e-04 2.5478688874633371e-05  -5.0316781047097560e-04 5.7710122274171956e-05 -1.3083035317403622e-05  -2.0015563026970766e-04 3.8341558866320999e-04 3.4278449071429314e-05  -4.1868363807623637e-04 1.2711849206893536e-04 -3.5074635974124461e-05  1.3200864421214874e-04 3.9414110605246085e-04 -3.5708869408323123e-05  -4.7648189899317494e-04 -1.6550075941927292e-04 8.0377622932726157e-06  -3.6632611026486521e-04 4.2200634355557025e-05 3.9150364795676295e-05  -2.8416058741426468e-04 2.3470494038857020e-04 -3.9394687799974577e-05  -3.3949193357777474e-04 -2.5872505251897052e-04 3.5706755876435614e-05  -3.2906284135460765e-04 -3.5237602085214748e-04 2.4441965774719537e-05  -2.7563147610345921e-04 3.9832349668739593e-04 -2.3623229816922109e-05  -1.2900765577764786e-04 -4.6244270130204690e-04 -2.8882240044953110e-06  -3.0082967217090896e-04 3.8416679820386724e-05 -4.1973659500977375e-05  -4.3368261705113530e-04 -5.3554767184519454e-05 -3.5672254381217351e-05  -2.0367844280046535e-04 -3.8126276631973450e-04 3.3982079463535416e-05  -1.8572675415062434e-04 -4.4051235464696365e-04 2.0602612327449298e-05  -1.8633985345922202e-04 -2.5588942296915046e-04 4.0500344580905396e-05  2.6557447746321082e-04 4.1823865797222448e-04 1.4916742440273797e-06  -3.5885464651689246e-04 -3.5386654408628139e-04 -1.0566598367397935e-05  -4.4156485678889366e-04 -2.4255372819679611e-04 -1.7526114608177117e-05  1.0056536752310720e-04 4.6416082581223877e-04 -2.4959903172483775e-05  -3.9217088171833503e-05 4.4153494541741785e-04 -3.1488961001322086e-05  -1.3842342343145828e-05 3.5363085239003162e-04 -3.9230518267858455e-05  -1.7105424189685275e-04 1.5160175454587426e-04 -4.3095186460783703e-05  -2.7518983100036803e-04 -3.1689417269858630e-04 -3.5270525367523668e-05  1.4291521933629083e-04 3.8841201431246390e-04 3.4976729811600440e-05  -2.9434249451475462e-04 -4.0296507190549661e-04 1.1448561799812559e-05  -4.5456802305663359e-05 3.0867957996537023e-04 4.1182162260764544e-05  -1.0341018821299811e-04 1.3021191962298505e-04 4.4881553583578296e-05  -6.1566798051118814e-05 4.8221413083736526e-04 -1.8234160508255730e-05  -1.3291947509912042e-04 -9.2855874239783300e-05 -4.3474713588596129e-05  -4.1511020619464716e-05 -4.6069900659590174e-04 2.9453618338670702e-05  -2.8744173487780714e-04 -1.5003003842894050e-04 -4.1506530614606295e-05  -4.1475818395959326e-04 -2.2398015774570125e-04 -3.0434485352155913e-05  -4.8145113680028620e-04 -1.0056950224479707e-04 -2.3169638861038742e-05  -4.8707142023605315e-04 -1.2043044082752627e-04 -7.2152319579774732e-06  -5.0834329030069643e-04 -1.7563793194775850e-05 4.2635150577587008e-06  -2.4256550064677600e-04 2.5969775866899365e-04 3.9564564157509116e-05  -3.5164010260764657e-04 2.7313902876465373e-04 3.3425184361376472e-05  -4.8958843379846390e-05 -4.8103272691363963e-04 1.6613030484593218e-05  -2.0882608833847315e-05 4.2407625453088732e-04 3.4565674270240938e-05  2.1145814126425152e-04 4.3913460619385763e-04 -1.4439583850557878e-05  4.8080596563890250e-04 -1.3477750049088399e-04 -2.3580650691616936e-05  3.0429064630300999e-05 -1.6994326642779886e-04 4.3571468345238209e-05  8.2063282521832931e-05 -4.7486832649853907e-04 7.0010746087168872e-06  -1.8563367357373836e-04 3.7484843910441244e-04 -3.4911044373693418e-05  4.9133700775945042e-04 1.2237545225799807e-04 7.6273344105322966e-06  3.3415499299378163e-04 3.5948573621487654e-04 -1.3190238458549751e-05  3.8232666114530614e-04 3.1683695603908831e-04 2.0306099387920180e-07  -4.0638190118547860e-04 -2.9690301904244790e-04 1.3512695877316672e-05  -1.7072029415222189e-04 4.6050658179082587e-04 -3.7170236363436132e-06  -2.8805614809574039e-04 3.9836217929134515e-04 -1.0071723879506566e-05  -3.5630352897787669e-05 -3.6705565264773596e-04 3.8344589412311016e-05  -1.4669661106657517e-04 -6.6957202831796839e-05 4.4241333381901247e-05  -3.1159739436750566e-04 -1.0800409577176415e-04 4.0550284590501477e-05  1.1884663533797156e-04 4.7805328968985027e-04 2.3119267927209403e-06  1.0821414869064977e-05 -4.8069421552224793e-04 -5.2395418644869133e-06  3.1675831703227195e-04 -3.4948720015303390e-04 -2.9041796237159020e-05  4.9083586883804189e-04 1.2487071666116069e-04 -6.6031258996218505e-06  2.7484464493974782e-04 -1.6120299271254860e-04 -4.0145599739814386e-05  -4.4242001966836531e-04 -2.5912555741962524e-04 -1.8426407469978200e-06  -1.1213725374001100e-04 -3.9008022207288504e-04 -3.7378210949022675e-05  2.9953743449201577e-04 2.8684904962895659e-04 3.5605424638396205e-05  -4.8424680869652638e-04 4.4066172702881626e-05 -2.6699390252905742e-05  1.3352045066068884e-04 -4.2761370944472381e-04 3.1569668134430312e-05  1.5381587493898798e-04 2.9405096972114590e-04 -4.0611680031211783e-05  7.3661944424205478e-05 4.8039993953444515e-04 -1.2002625444222325e-05  -3.5139999039428391e-04 3.3660455457319217e-04 2.4262224442096567e-05  4.4633027142215075e-04 -2.4389665238077200e-04 1.5556340852781314e-05  -9.9744258485275189e-06 1.5482422115038616e-04 -4.3134017119059538e-05  4.2224290453140282e-04 -2.5158739485732989e-04 -2.4845694001036692e-05  -4.9609030899598464e-04 1.1636693839528203e-04 1.4606834659186340e-06  -2.6511118464560849e-04 -4.2306227669745042e-04 -8.0072956232075793e-07  -1.6242182524999624e-04 -4.5181400937473003e-04 7.1274198420392552e-06  4.5953511391812717e-04 2.1351289264955151e-04 -1.6287809796654799e-07  -1.4050180762371952e-04 2.9876855787113420e-04 -4.0093799119623152e-05  1.7416998189732680e-04 2.7020629499716010e-04 4.0425104262191688e-05  -2.1254280332395353e-04 4.5060628454543606e-05 4.3471177844243182e-05  -1.9642140233874601e-04 4.4660444887325434e-04 -1.6505382578423415e-05  4.5413956718767280e-04 -2.2807438004689159e-04 -1.5289597109970652e-05  -4.0289266730456149e-05 -4.8274663142073280e-04 5.1475120686192383e-06  -3.9611434881135354e-04 1.5471450189354400e-04 3.5146053376040884e-05  -2.7542517425351189e-04 1.3368818446172646e-04 4.1691167652250289e-05  -1.5995749910169797e-04 4.3650246996111285e-04 -2.7259934615484646e-05  -3.6521113739065652e-04 -3.4780805265929220e-04 2.4190671037252271e-06  -8.8874560657339367e-07 -4.4832183265407784e-08 -8.1388859454005735e-08  -2.0308492649465806e-04 -2.3945749462922212e-04 -6.8279964534914670e-07  3.0281119735844127e-04 9.2866907003936829e-05 2.0686684079387879e-07  -1.2179031646873930e-04 2.5129935955035479e-04 -1.0013054078967365e-05  2.2781998938102847e-04 -1.7769629636436399e-04 -8.3505266102085714e-06  -1.4922515028426990e-04 2.6002591948537797e-05 1.9326609307416531e-05  -3.1207329077990483e-04 4.5429397658353791e-05 -2.2876028036600110e-08  6.0346529502173974e-05 2.8469436504153709e-04 8.3338162859820790e-06  2.1291276994408212e-04 -1.4032169231705926e-04 1.3540603754887723e-05  -1.6465991310019850e-04 -2.5582795422361519e-05 -1.8505569328942924e-05  1.5786686450703141e-04 2.1009088344729732e-04 -1.5549289919525564e-05  -5.7838566424134217e-05 -2.3928051122530262e-04 1.7319881089034365e-05  5.0539762374767779e-05 -3.4419096330376555e-04 -2.7271513697286722e-07  1.2484176269930019e-04 9.1078499200388272e-05 2.1399387455415035e-05  -4.9872612772901186e-05 -2.6910865891556588e-04 -1.7357260575625561e-05  1.0896428621135409e-04 -3.2771068294231885e-05 -2.2819560282951059e-05  -2.1422774384217819e-04 2.6551009008593632e-04 8.6331774097804666e-06  -3.1376977341259442e-04 -1.2603959902920205e-04 1.2948339290613300e-05  3.1850775770760563e-04 1.5176807666310544e-05 -1.6482987840664675e-05  -4.3148430410841036e-05 1.6168589781344708e-04 -2.4395791283318348e-05  6.5047573045493492e-05 3.6838695225491767e-04 -6.2476937201599906e-06  2.6871085348741813e-04 2.1846960879908989e-04 1.3413406242395345e-05  2.6574752498717389e-04 3.0489069150006992e-04 -1.7870930608650915e-06  -3.1037610137655571e-04 1.3986012070809378e-04 -1.5574392326594596e-05  3.7721337800380094e-04 -1.1511042135169944e-04 2.9557624129412943e-06  -7.5466537419906210e-05 2.4280170588216526e-04 2.2912488561386216e-05  -3.6524857603139048e-04 -1.2702322924013811e-04 -9.9905464540140299e-06  3.5949925293763215e-04 2.0119457629133947e-05 1.5513608750048365e-05  2.6380603901420365e-04 -2.9669897049778990e-04 4.2498371589296338e-06  -3.4185628623575241e-04 1.1249317700092379e-04 1.5276807005871143e-05  7.7753975813177372e-05 -1.1830610587868287e-04 2.6620815431977186e-05  -1.2426124965985049e-04 -3.7397316872946659e-04 7.2584216512928444e-06  -1.1896906229627315e-04 -3.9192116800030588e-04 -7.3001249180451119e-06  1.4111228655792115e-04 -3.4955612533824223e-04 -1.4433372769260942e-05  -3.0432492409164340e-04 2.9386363568371829e-04 -6.2555687613208717e-06  1.1982257024482550e-04 -3.4151443295194834e-04 1.4940637096796039e-05  -8.4769207602319329e-05 3.9731938301112941e-04 4.1093085188145657e-06  -2.0749018582096781e-04 -1.5311442660468638e-04 2.5195734560036849e-05  3.5394796131289465e-04 1.9427019977771626e-04 -1.2455540598425061e-05  4.5343144599469154e-05 1.8218930671732976e-04 -2.8245810498428179e-06  1.3438212702029931e-04 9.7868627648353815e-05 7.6484267936625742e-06  </DataArray> 
</PointData> 
</Piece>
</UnstructuredGrid>
</VTKFile>