<?xml version="1.0"?>
<VTKFile type="UnstructuredGrid"  version="0.1"  >
<UnstructuredGrid>
<Piece  NumberOfPoints="201" NumberOfCells="657">
<Points>
<DataArray  type="Float64"  NumberOfComponents="3"  format="ascii">-6.881233358952755 -3.583063560840133 -75.00169206438835  -6.146463682723798 -3.305902281543689 79.53585579369201  3950.363160509476 -4.901882690663246 84.68721297721385  7497.133568703965 -10.95914407928689 77.62184208160119  9960.885052725551 3.144978349763494 -9.861069588769027  11186.47135557382 -3.119172145765019 -37.73321186473484  11564.0851038585 -18.88193153633922 8.93927241755604  11188.09104688887 -16.40635262901202 47.43433291871801  9955.908270001812 -2.8117559394091 15.62914541830582  7500.313052464896 -8.455739541621867 -70.62575616525862  3952.133022200861 -3.146465747399576 -84.78980869526936  5016.161364225086 -3710.801252433809 70.10646921719405  4975.717138143536 2877.317434574029 -90.1511905430379  11092.29720533133 -3003.347764159486 -26.01605911934757  8564.193180716858 -3509.44248737057 -17.98721762055754  10359.68935749872 3137.369377653407 47.42598618813597  10341.67721631687 3094.822300820594 -46.59918259947085  5581.214049530789 3319.343508880934 74.02715887290873  1931.328609573188 -3317.272794804356 -84.10344618193295  8505.964027634755 -3238.813335812705 25.44031439373066  5959.217574834401 -6399.118486679117 41.7555312522336  8553.783463328351 -6048.533535933242 -14.45908162149968  5813.760453753306 -8564.202565050246 -56.29825415373537  7937.352543336869 -7737.776835240966 -50.7202406947829  4978.956451711181 -9808.829412570376 -52.65233885730129  7021.39669428618 -8697.72507059419 15.30282081646326  3684.332883161896 -10430.25894995122 14.50372000251809  5454.898199878492 -9234.230001225655 68.6231906567395  1990.870432447753 -10422.45255448736 56.73648354645235  3662.774092641149 -8908.928242387743 17.79816569045437  -132.4854594344285 -9570.070565413314 13.34192296262455  8387.25837471169 -7275.394395725945 41.9606177509435  8568.390935981888 3241.212156644188 -26.5067836266789  8413.41301711417 6082.405470456108 32.08208679178782  9743.708452154913 5574.781305048517 36.86208534935456  1399.46273819678 -7322.361620073941 -75.43162179184822  5163.454146694334 -6396.396380128823 -49.43136880917808  5960.684132537328 6055.9840794227 -39.05114390449586  5547.041561264157 8509.664226463179 24.04774382076161  11137.29751860009 -2942.852140776973 32.28708596930623  9814.130519943872 -6040.466631328023 14.70429340652337  10445.95584495012 -3132.767837223173 -28.38614884677048  1928.098312256763 3331.111895253736 83.5494581021764  8494.052191388961 3188.924561042011 23.9685484828849  8314.437310278727 6046.921878998193 -34.81803307860918  2475.618426344882 -10191.77905590208 -61.07736731819688  -1753.150646475216 -10564.78499709243 64.27707065114237  2589.444352894364 -6644.978900348304 82.91987492407344  9703.68214427237 5688.914133610471 -44.90576485479266  7277.364022975094 8205.950471886901 -56.81258520022102  5399.99777290268 8344.172805162698 -16.61515138791751  4120.33094861786 10037.91468257795 -41.60778165761604  1886.030458156041 9737.200551483793 -22.56721510284919  517.1035599041325 10820.02896729429 -41.75297554740385  -1919.762758322657 9977.06096712426 -21.48011568953348  -3034.362256297838 10512.16244506287 -41.33045244234715  -5478.20642081138 9192.644744620475 -46.2490271487562  -609.0502435962977 11079.15875157848 4.798851157383535  -3919.451333727689 -9105.793503538944 14.12732969558505  -5175.042648294285 -9624.873947573524 50.07953598529654  -6272.759821378893 9298.548476284155 -28.57208686197765  -8345.276494206038 7396.465180952149 -51.97048330013497  -8734.064173432593 7229.08745305794 0.5743631427736844  -10383.46696866064 4776.537962596478 -31.36722845232792  -10490.16539354465 4530.051851117796 18.65069471599634  -9496.546702113692 4696.298810602257 -37.15062621694761  -8608.619583797061 6856.088762410267 48.45303386460307  -11037.77800557466 2032.476352741757 -41.8762121621392  -9977.70483510948 3853.045471008932 34.60272841223841  -9856.69854278887 1388.045751202082 -12.68490252251439  -10714.70206953532 -1513.757775748707 -41.38392281214198  -7672.549660865341 6005.567104206901 -3.19589186641781  -1775.518236043188 -5095.475580364408 -82.1967232643342  -7282.481469014563 -7665.678636187852 23.82804573203541  -9008.236611254028 -2110.664123899592 16.70057421117451  -9390.448461319607 -4780.267197861188 -31.26514063326198  -11248.13216702658 1286.918438176699 38.5879287732019  -4167.624180543774 7993.909012894923 16.01065288820786  -8616.734925499928 2621.063222799948 -19.82389367363783  2714.610121564448 8145.470491879631 -29.05706173816537  -10738.83173516802 -3758.542031989381 -44.87727734213524  -7428.621293682095 861.8083241807292 65.21951704503579  -5776.45417830082 4750.243090754605 -69.59892585439718  -7017.409613978516 -5356.408873146982 24.57826710540849  -7090.072740320706 -7652.783211280627 -30.86617293521104  -5956.274226118318 8633.979747022304 33.82389111859257  -2913.896494015265 -10635.03140180391 19.24732688929993  -6104.351799843472 789.3255982025519 -85.78016285398303  -8905.102391612738 -1123.243425161333 -37.70871722208619  -4224.385420634984 -7949.106811036268 23.83741292858855  -4054.945382577009 -9675.774923758887 -66.16065049129594  -3748.996995480057 -5177.378981120115 72.8285370396361  5927.15121069788 9535.559598166223 -7.180062230532744  -7996.030133880198 -7959.276723611373 15.95216728948832  -9716.266344780572 -5412.725471772508 37.14437138786764  2164.370830875539 10062.26939790246 31.42767434661278  -812.4188337885853 9306.679031507199 -6.468372917881027  -285.1562936106479 7213.646948559382 -57.16970155521267  -3470.156157099507 3076.767667698711 -83.87991381157616  -5679.502403359233 -6550.201931826989 -28.33198766347238  2959.551971197213 7997.65118126873 27.44843989349516  -6570.818241448345 -9010.02502157886 -36.74284240524025  -935.1243697109951 6236.196629153464 78.47825196302443  -2103.007606814189 2660.85202027737 86.31230454686818  -1334.064025926662 10649.07388688066 41.88769654699971  -2703.58958413952 -1894.959814048585 -77.92241443321512  -884.4589121958907 -9721.577596146519 -11.00202726308345  -5830.196955552309 -3034.650038179533 -74.09174271673368  -8709.398328096881 -4720.059207967137 -4.792425290834871  -10485.82173262608 -2195.674615646847 53.71332267954719  -11054.99381422322 -2742.419568710283 34.02688955089033  -11522.08803883535 -372.0008184790124 -20.31563899271273  -4912.564372564961 5273.851125581269 67.38595106997104  -7292.388335759018 5695.246372427062 12.78473498274332  -1042.382608194029 -10682.04991042642 -52.53147194405904  -429.0310626166307 8852.684303561011 17.13673494123753  4689.944646128937 9863.374992343355 37.85256509940868  10387.7382323627 -2970.944931001186 30.5822383820834  629.7231293765601 -3474.116165062107 81.79175721453163  1846.195217808406 -10827.87506164194 -40.43719142200463  -3825.37995503121 7734.762816713332 -25.53171579398474  11090.90193998869 2790.57432159433 -30.63788151576222  7468.910031829834 8108.440971054026 54.35695773221511  8689.192673366351 7249.533559660047 -5.513813348488005  -8996.087219477278 -6672.451684648815 -33.92964163814945  -3844.533681640066 10454.29759666804 24.72677101349655  -6466.62268430005 9025.322321818163 35.13574191156589  -704.1967678563306 -7485.282476007527 62.20817174713369  -2984.841417401342 -1367.72680695798 81.43851479953491  -6293.891855695317 -2194.010890545943 77.58006596298139  2677.500523978268 10826.62058124716 -19.54064295886228  283.9928597175837 -10998.54369309016 28.19780131389821  6744.710340540159 -7436.424771466258 14.80809781419086  11096.20794118088 2836.095503689479 26.96466049545126  5580.641308723414 -3284.217628711492 -63.4179055762682  -9881.791437500498 -5910.18390559169 -2.550231072359718  -2277.315185510291 -8016.513173220099 -46.40244294056447  6149.198115791007 5884.757825595767 39.21322774404899  -10393.25488448188 937.7837931586894 28.06766025029606  2789.146113241053 -8921.53898182563 -4.902226469606006  3128.297023452981 5935.435444639501 -73.15592170765683  1656.035621427085 10821.25958997705 29.53759472655167  -7544.266973730268 7278.831893205581 -35.85413252596268  9871.069223867438 -5439.043443450157 -22.10781644071349  -200.9521495784218 3180.822857552295 -79.4346115475488  9129.588004563871 -5445.357303773124 23.47701919837735  -11230.02475052209 2646.84561337197 -1.348694189242215  -5991.96241881155 -9556.461834444326 -5.446483928817694  -3662.335902266266 -10334.09540454112 -56.74705863868915  10397.80198700393 4884.692735722399 -10.73950089580013  -2850.716326723808 6060.589068460318 -64.9159992338038  3545.752010799019 5489.722500683849 67.50042803584978  -4314.897343550577 911.4731843145012 81.60519235580847  -4332.235804323096 9923.553587951816 50.85114070648282  10040.55727654149 -5072.670120226614 35.26113122350644  -843.9165635123709 -11015.51804285254 -21.38362445136659  -8110.637197107884 3166.348630441324 38.10311343483193  -5595.386910316123 2713.943943452598 76.27285683135835  -3410.960425864851 9384.660039858885 28.8283846598398  -8190.999487066664 -7888.130460140055 -14.69721427003415  -7.324410809263 0.9279638797023735 0.7628514439990055  -4103.721760300145 -4851.266280421418 -1.84753813782402  6164.836797993771 1886.741613003753 -0.8598524082141876  -2471.134321014936 5094.437917391248 -16.70853066198454  4618.201065213714 -3610.558366480461 -12.654962282943  -3027.059233191005 528.0753160061557 35.06837511956675  -6348.50903130312 939.4734404042414 -3.670850277185773  1220.78864763668 5764.181132964786 14.46551402636437  4313.345626566242 -2845.115699702014 27.29070653735552  -3352.128452160156 -530.3991037859428 -31.70621966067591  3210.142474033252 4274.077185121457 -30.25995111261344  -1178.72443408198 -4881.411355202602 32.07830772126684  1044.048163237791 -7026.449751883372 -1.731254810513043  2551.869382166907 1868.663883109198 36.31078933603504  -1
[...]
<PointData  Vectors="Coriolis"> 
<DataArray  type="Float64"  Name="Coriolis"  NumberOfComponents="3" format="ascii">-4.7013613020525200e-11 1.5475045843730382e-10 0.0000000000000000e+00  -6.2332763116742331e-11 1.3435416732864334e-10 0.0000000000000000e+00  -1.8394035699629532e-10 -4.2680696907090011e-08 0.0000000000000000e+00  -3.2621669946669626e-10 -8.1156086515460533e-08 0.0000000000000000e+00  8.4695906464348827e-11 -1.0373988861188411e-07 0.0000000000000000e+00  -8.6233746434847155e-11 -1.1067983142168944e-07 0.0000000000000000e+00  -4.2199393835469582e-10 -1.1210600553355300e-07 0.0000000000000000e+00  -3.2424206768704789e-10 -1.1063060787727223e-07 0.0000000000000000e+00  -4.1772205667886094e-11 -1.0365276848096517e-07 0.0000000000000000e+00  -2.3832106492582077e-10 -8.1298621268024221e-08 0.0000000000000000e+00  -1.5026778362704727e-10 -4.2734309717369918e-08 0.0000000000000000e+00  -4.0151924994949229e-08 -5.4554363119259029e-08 0.0000000000000000e+00  3.1106539700664295e-08 -5.3865032910044380e-08 0.0000000000000000e+00  -2.9341292405411732e-08 -1.0899392609839426e-07 0.0000000000000000e+00  -3.6969172164930437e-08 -9.0526118761441569e-08 0.0000000000000000e+00  3.1668996376933774e-08 -1.0453003359858107e-07 0.0000000000000000e+00  3.0880165738741716e-08 -1.0464819443463496e-07 0.0000000000000000e+00  3.5951793080890541e-08 -6.0478775280687448e-08 0.0000000000000000e+00  -3.5786872492129610e-08 -2.0986082298849949e-08 0.0000000000000000e+00  -3.4176023730273908e-08 -8.9958966894269037e-08 0.0000000000000000e+00  -6.8052549365846989e-08 -6.3568400726628616e-08 0.0000000000000000e+00  -6.1769600192908532e-08 -8.7659635330102932e-08 0.0000000000000000e+00  -8.6508442984948001e-08 -5.9025256597668634e-08 0.0000000000000000e+00  -7.5030948016068773e-08 -7.7923248419141127e-08 0.0000000000000000e+00  -9.4606541454557237e-08 -4.8769410802550214e-08 0.0000000000000000e+00  -8.2894516047574790e-08 -6.8094438765879093e-08 0.0000000000000000e+00  -1.0006686139871203e-07 -3.5706578775535890e-08 0.0000000000000000e+00  -9.0688883889231306e-08 -5.4094293096442336e-08 0.0000000000000000e+00  -1.0324266808336017e-07 -1.9946251827871903e-08 0.0000000000000000e+00  -9.3081418292510618e-08 -3.8295920798730253e-08 0.0000000000000000e+00  -1.0003283737818818e-07 1.2508477222255795e-09 0.0000000000000000e+00  -7.1856732532294020e-08 -8.3312802935105391e-08 0.0000000000000000e+00  3.4242392375198745e-08 -9.1449886106746042e-08 0.0000000000000000e+00  6.2020621871071992e-08 -8.6626004362487934e-08 0.0000000000000000e+00  5.4162340766744754e-08 -9.5530169244762598e-08 0.0000000000000000e+00  -7.8918588201156463e-08 -1.4986927633087281e-08 0.0000000000000000e+00  -6.8614529032640198e-08 -5.5733250058160843e-08 0.0000000000000000e+00  6.4732030719527797e-08 -6.3602498052619271e-08 0.0000000000000000e+00  8.6857305873213283e-08 -5.6921238967503281e-08 0.0000000000000000e+00  -2.8833941359005888e-08 -1.0952293449390967e-07 0.0000000000000000e+00  -5.8882605157232723e-08 -9.6367991391026434e-08 0.0000000000000000e+00  -3.1512223820060658e-08 -1.0610081606973306e-07 0.0000000000000000e+00  3.6109421515181480e-08 -2.0829423025375840e-08 0.0000000000000000e+00  3.4018163883866092e-08 -9.0831170487906260e-08 0.0000000000000000e+00  6.1712908532489289e-08 -8.5326000754680739e-08 0.0000000000000000e+00  -1.0189822313274025e-07 -2.4932097409612586e-08 0.0000000000000000e+00  -1.0479644677652603e-07 1.7870688351410410e-08 0.0000000000000000e+00  -7.1550325878022154e-08 -2.8158919063943961e-08 0.0000000000000000e+00  5.5635770368858690e-08 -9.5252170019726120e-08 0.0000000000000000e+00  8.0251549608082506e-08 -7.1838406730810671e-08 0.0000000000000000e+00  8.5800566600660989e-08 -5.5983284750514771e-08 0.0000000000000000e+00  9.9133700963852121e-08 -4.1133443926644714e-08 0.0000000000000000e+00  9.9804032996374420e-08 -1.9561220998749779e-08 0.0000000000000000e+00  1.0634257523408805e-07 -5.0072610465175707e-09 0.0000000000000000e+00  1.0169332983250063e-07 1.9833420985690018e-08 0.0000000000000000e+00  1.0224150377431126e-07 2.9853507902829253e-08 0.0000000000000000e+00  9.1644220912966760e-08 5.5185818744347822e-08 0.0000000000000000e+00  1.0717811989553418e-07 6.3096288793937480e-09 0.0000000000000000e+00  -9.4030018643078334e-08 4.0682526246903184e-08 0.0000000000000000e+00  -9.4571325722707683e-08 5.1048537795572556e-08 0.0000000000000000e+00  8.9970377387908766e-08 6.1488726425832091e-08 0.0000000000000000e+00  7.2935749314734217e-08 8.2518579293828828e-08 0.0000000000000000e+00  6.9790041256579933e-08 8.4780832106670230e-08 0.0000000000000000e+00  4.6082068050246984e-08 1.0206710060679081e-07 0.0000000000000000e+00  4.3675449452878910e-08 1.0274861528300767e-07 0.0000000000000000e+00  4.7265927628371400e-08 9.6586624783514849e-08 0.0000000000000000e+00  6.7898117606886207e-08 8.5786465825397837e-08 0.0000000000000000e+00  2.0223895460710222e-08 1.0918847778522992e-07 0.0000000000000000e+00  3.8651887613193708e-08 1.0109979814727224e-07 0.0000000000000000e+00  1.4729498904885417e-08 1.0290433925286122e-07 0.0000000000000000e+00  -1.5459839513180148e-08 1.0786171759435818e-07 0.0000000000000000e+00  6.2510920549833343e-08 8.0613591084110830e-08 0.0000000000000000e+00  -5.5004911810875887e-08 1.9404141877317394e-08 0.0000000000000000e+00  -7.7641132511956986e-08 7.4190904031462008e-08 0.0000000000000000e+00  -2.2238436085214499e-08 9.5823641765129566e-08 0.0000000000000000e+00  -4.8489233459573220e-08 9.6022760963459176e-08 0.0000000000000000e+00  1.2690331931621824e-08 1.1064552076060705e-07 0.0000000000000000e+00  8.4312264402737775e-08 4.4013793178919421e-08 0.0000000000000000e+00  2.7953083366174132e-08 9.2067632715870838e-08 0.0000000000000000e+00  8.6670782639128498e-08 -2.9028417318832844e-08 0.0000000000000000e+00  -3.6393261514644627e-08 1.0477734614572265e-07 0.0000000000000000e+00  9.2798288513885420e-09 8.0554324809697765e-08 0.0000000000000000e+00  5.1611112265057283e-08 6.2486302819454578e-08 0.0000000000000000e+00  -5.6893083329360035e-08 7.4653546993752006e-08 0.0000000000000000e+00  -7.7486730111455028e-08 7.2360212014686581e-08 0.0000000000000000e+00  8.7590481356328699e-08 6.0610769562019207e-08 0.0000000000000000e+00  -1.0169015672845457e-07 2.8368506407955786e-08 0.0000000000000000e+00  8.4477453767193976e-09 6.6151798753654438e-08 0.0000000000000000e+00  -1.1776578272758973e-08 9.5365875975910828e-08 0.0000000000000000e+00  -8.3838863393488130e-08 4.4788452087729441e-08 0.0000000000000000e+00  -9.6867720603534289e-08 4.0840914312340389e-08 0.0000000000000000e+00  -5.6269534482047374e-08 4.0975733533415458e-08 0.0000000000000000e+00  9.1969782546778136e-08 -5.8399257162612199e-08 0.0000000000000000e+00  -7.7814492969123319e-08 7.8911365979591921e-08 0.0000000000000000e+00  -5.3337043845552790e-08 9.7099163563858845e-08 0.0000000000000000e+00  1.0206796861785954e-07 -2.2114108312415357e-08 0.0000000000000000e+00  9.7092586117518345e-08 8.6237534539929613e-09 0.0000000000000000e+00  7.7762664871363828e-08 3.0439013490755039e-09 0.0000000000000000e+00  3.3336900196872854e-08 3.7614460383053130e-08 0.0000000000000000e+00  -6.9684347914500225e-08 6.0513652752465785e-08 0.0000000000000000e+00  8.5410967671108236e-08 -3.1426749762229481e-08 0.0000000000000000e+00  -8.8611153777077698e-08 6.4725282320975561e-08 0.0000000000000000e+00  6.7877976616717542e-08 9.9958531896431761e-09 0.0000000000000000e+00  2.8633321440888397e-08 2.2739678271687737e-08 0.0000000000000000e+00  1.0603785161591003e-07 1.3538406651158590e-08 0.0000000000000000e+00  -2.0418807298752835e-08 2.9228707074490168e-08 0.0000000000000000e+00  -1.0130672200788199e-07 9.1281842720539130e-09 0.0000000000000000e+00  -3.2991283198672665e-08 6.3207820099059975e-08 0.0000000000000000e+00  -4.9252755597817659e-08 9.1204433787164986e-08 0.0000000000000000e+00  -2.2115017528833909e-08 1.0587007086600341e-07 0.0000000000000000e+00  -2.6482395263557414e-08 1.0710595912163456e-07 0.0000000000000000e+00  -3.8622403979868101e-09 1.1178359765866924e-07 0.0000000000000000e+00  5.7106979322459507e-08 5.3339632582017032e-08 0.0000000000000000e+00  6.0062685745782370e-08 7.7324903270179785e-08 0.0000000000000000e+00  -1.0577806343063890e-07 1.0765944499767545e-08 0.0000000000000000e+00  9.3253457491363970e-08 4.5920408284829573e-09 0.0000000000000000e+00  9.6564756677983574e-08 -4.6499191069780748e-08 0.0000000000000000e+00  -2.9637282867257348e-08 -1.0572819911338804e-07 0.0000000000000000e+00  -3.7370159263689685e-08 -6.6912859531423279e-09 0.0000000000000000e+00  -1.0442252501996957e-07 -1.8045539561551081e-08 0.0000000000000000e+00  8.2428366616271916e-08 4.0820446093412442e-08 0.0000000000000000e+00  2.6910099099397880e-08 -1.0804395265590773e-07 0.0000000000000000e+00  7.9050141248651079e-08 -7.3479965222629665e-08 0.0000000000000000e+00  6.9671766093973251e-08 -8.4072811580475084e-08 0.0000000000000000e+00  -6.5288336164825130e-08 8.9362507196685010e-08 0.0000000000000000e+00  1.0126440820655821e-07 3.7541025991300436e-08 0.0000000000000000e+00  8.7598987577850570e-08 6.3342928245975910e-08 0.0000000000000000e+00  -8.0714749612695943e-08 7.8350380712347455e-09 0.0000000000000000e+00  -1.4723745084295471e-08 3.2258269681608928e-08 0.0000000000000000e+00  -2.3749868676534994e-08 6.8519597736528144e-08 0.0000000000000000e+00  1.0512289158470697e-07 -2.6134119838284724e-08 0.0000000000000000e+00  -1.0570362550276552e-07 -2.3796058862222090e-09 0.0000000000000000e+00  -7.6851484644663051e-08 -6.9654473545284188e-08 0.0000000000000000e+00  2.7458802382036173e-08 -1.0793375328349419e-07 0.0000000000000000e+00  -3.5448191847075880e-08 -6.0437747079165920e-08 0.0000000000000000e+00  -5.6981153496763434e-08 9.7287212044237094e-08 0.0000000000000000e+00  -8.5777802974455844e-08 2.4658741236078246e-08 0.0000000000000000e+00  6.3077489885875512e-08 -6.5867638463683135e-08 0.0000000000000000e+00  9.6900567269464169e-09 1.0648483311111953e-07 0.0000000000000000e+00  -9.4031336228762110e-08 -2.9360860309634299e-08 0.0000000000000000e+00  6.4661176645031990e-08 -3.3823780515575000e-08 0.0000000000000000e+00  1.0563891484512787e-07 -1.6198103359247488e-08 0.0000000000000000e+00  7.4018618552490620e-08 7.7272103110202065e-08 0.0000000000000000e+00  -5.3632349989121310e-08 -9.8147068006003975e-08 0.0000000000000000e+00  3.4045513681619006e-08 2.1933548198668831e-09 0.0000000000000000e+00  -5.5323527740651093e-08 -9.2850307764358180e-08 0.0000000000000000e+00  2.5588839806766907e-08 1.0908919338813210e-07 0.0000000000000000e+00  -9.3030485943730022e-08 5.8297380067135346e-08 0.0000000000000000e+00  -9.9352930203170263e-08 3.5716210504111236e-08 0.0000000000000000e+00  4.6951026485975846e-08 -1.0105078450798270e-07 0.0000000000000000e+00  6.5698564146233361e-08 3.0896045710439579e-08 0.0000000000000000e+00  5.9417783889574790e-08 -3.8299604916810984e-08 0.0000000000000000e+00  9.9087354107298987e-09 4.6737705926946780e-08 0.0000000000000000e+00  9.8207359038591647e-08 4.3192644477707320e-08 0.0000000000000000e+00  -5.0153066287805801e-08 -9.9864315371134584e-08 0.0000000000000000e+00  -1.0615494735042656e-07 8.8595232160850711e-09 0.0000000000000000e+00  3.4021386652707113e-08 8.7104694483450129e-08 0.0000000000000000e+00  2.9397744612204429e-08 6.0565404228334668e-08 0.0000000000000000e+00  9.5985955574009114e-08 3.5174310477264957e-08 0.0000000000000000e+00  -7.6482243717456339e-08 8.0309144669527188e-08 0.0000000000000000e+00  -9.8585008043551392e-12 1.9543324993498825e-10 0.0000000000000000e+00  -5.2656188734491523e-08 4.4657939126905301e-08 0.0000000000000000e+00  2.0421233379892721e-08 -6.6587531886243869e-08 0.0000000000000000e+00  5.5260189395322827e-08 2.6781428996162101e-08 0.0000000000000000e+00  -3.9075033893886904e-08 -5.0097126326792222e-08 0.0000000000000000e+00  5.7179141181121231e-09 3.2814290024491235e-08 0.0000000000000000e+00  9.9898269665626695e-09 6.8624246335429691e-08 0.0000000000000000e+00  6.2603679373182768e-08 -1.3270072218279402e-08 0.0000000000000000e+00  -3.0856438741377514e-08 -4.6819060792055973e-08 0.0000000000000000e+00  -5.6256017636934124e-09 3.6208361215147125e-08 0.0000000000000000e+00  4.6198534012586830e-08 -3.4714584420404319e-08 0.0000000000000000e+00  -5.2617270464115035e-08 1.2718576524311365e-08 0.0000000000000000e+00  -7.5686853537378498e-08 -1.1113585191070343e-08 0.0000000000000000e+00  2.0027966345241403e-08 -2.7452435468013625e-08 0.0000000000000000e+00  -5.9176416072861662e-08 1.0966880426600863e-08 0.0000000000000000e+00  -7.2062875284147054e-09 -2.3961012491792844e-08 0.0000000000000000e+00  5.8385098516648250e-08 4.7108220727794350e-08 0.0000000000000000e+00  -2.7715837104107866e-08 6.8997299222456572e-08 0.0000000000000000e+00  3.3373474073206372e-09 -7.0039171792139330e-08 0.0000000000000000e+00  3.5554381641524134e-08 9.4882471681596292e-09 0.0000000000000000e+00  8.1007499536796267e-08 -1.4303821596010911e-08 0.0000000000000000e+00  4.8040997720651663e-08 -5.9088939513664686e-08 0.0000000000000000e+00  6.7044808181410298e-08 -5.8437309941440306e-08 0.0000000000000000e+00  3.0754940135982756e-08 6.8251038031052465e-08 0.0000000000000000e+00  -2.5312534407775574e-08 -8.2948411600558302e-08 0.0000000000000000e+00  5.3391573605930391e-08 1.6594929482888697e-08 0.0000000000000000e+00  -2.7932135274738023e-08 8.0317377346209624e-08 0.0000000000000000e+00  4.4242255177508074e-09 -7.9053113546952520e-08 0.0000000000000000e+00  -6.5243466328133980e-08 -5.8010381346132060e-08 0.0000000000000000e+00  2.4737007996659882e-08 7.5173463064811632e-08 0.0000000000000000e+00  -2.6015258571198737e-08 -1.7097932272344578e-08 0.0000000000000000e+00  -8.2235896540828395e-08 2.7324781897531656e-08 0.0000000000000000e+00  -8.6182623029699206e-08 2.6161041263452514e-08 0.0000000000000000e+00  -7.6866641144844914e-08 -3.1030288716813357e-08 0.0000000000000000e+00  6.4619982292579255e-08 6.6920397143517997e-08 0.0000000000000000e+00  -7.5098290261975176e-08 -2.6348725828076173e-08 0.0000000000000000e+00  8.7369678915669196e-08 1.8640566674651540e-08 0.0000000000000000e+00  -3.3669533533513856e-08 4.5626646190635778e-08 0.0000000000000000e+00  4.2719599655138317e-08 -7.7832396442378321e-08 0.0000000000000000e+00  4.0063037219897312e-08 -9.9708601041782585e-09 0.0000000000000000e+00  2.1521101006326566e-08 -2.9550341090304564e-08 0.0000000000000000e+00  </DataArray> 
</PointData> 
</Piece>
</UnstructuredGrid>
</VTKFile>