<?xml version="1.0"?>
<VTKFile type="UnstructuredGrid"  version="0.1"  >
<UnstructuredGrid>
<Piece  NumberOfPoints="201" NumberOfCells="657">
<Points>
<DataArray  type="Float64"  NumberOfComponents="3"  format="ascii">-6.881233358952755 -3.583063560840133 -75.00169206438835  -6.146463682723798 -3.305902281543689 79.53585579369201  3950.363160509476 -4.901882690663246 84.68721297721385  7497.133568703965 -10.95914407928689 77.62184208160119  9960.885052725551 3.144978349763494 -9.861069588769027  11186.47135557382 -3.119172145765019 -37.73321186473484  11564.0851038585 -18.88193153633922 8.93927241755604  11188.09104688887 -16.40635262901202 47.43433291871801  9955.908270001812 -2.8117559394091 15.62914541830582  7500.313052464896 -8.455739541621867 -70.62575616525862  3952.133022200861 -3.146465747399576 -84.78980869526936  5016.161364225086 -3710.801252433809 70.10646921719405  4975.717138143536 2877.317434574029 -90.1511905430379  11092.29720533133 -3003.347764159486 -26.01605911934757  8564.193180716858 -3509.44248737057 -17.98721762055754  10359.68935749872 3137.369377653407 47.42598618813597  10341.67721631687 3094.822300820594 -46.59918259947085  5581.214049530789 3319.343508880934 74.02715887290873  1931.328609573188 -3317.272794804356 -84.10344618193295  8505.964027634755 -3238.813335812705 25.44031439373066  5959.217574834401 -6399.118486679117 41.7555312522336  8553.783463328351 -6048.533535933242 -14.45908162149968  5813.760453753306 -8564.202565050246 -56.29825415373537  7937.352543336869 -7737.776835240966 -50.7202406947829  4978.956451711181 -9808.829412570376 -52.65233885730129  7021.39669428618 -8697.72507059419 15.30282081646326  3684.332883161896 -10430.25894995122 14.50372000251809  5454.898199878492 -9234.230001225655 68.6231906567395  1990.870432447753 -10422.45255448736 56.73648354645235  3662.774092641149 -8908.928242387743 17.79816569045437  -132.4854594344285 -9570.070565413314 13.34192296262455  8387.25837471169 -7275.394395725945 41.9606177509435  8568.390935981888 3241.212156644188 -26.5067836266789  8413.41301711417 6082.405470456108 32.08208679178782  9743.708452154913 5574.781305048517 36.86208534935456  1399.46273819678 -7322.361620073941 -75.43162179184822  5163.454146694334 -6396.396380128823 -49.43136880917808  5960.684132537328 6055.9840794227 -39.05114390449586  5547.041561264157 8509.664226463179 24.04774382076161  11137.29751860009 -2942.852140776973 32.28708596930623  9814.130519943872 -6040.466631328023 14.70429340652337  10445.95584495012 -3132.767837223173 -28.38614884677048  1928.098312256763 3331.111895253736 83.5494581021764  8494.052191388961 3188.924561042011 23.9685484828849  8314.437310278727 6046.921878998193 -34.81803307860918  2475.618426344882 -10191.77905590208 -61.07736731819688  -1753.150646475216 -10564.78499709243 64.27707065114237  2589.444352894364 -6644.978900348304 82.91987492407344  9703.68214427237 5688.914133610471 -44.90576485479266  7277.364022975094 8205.950471886901 -56.81258520022102  5399.99777290268 8344.172805162698 -16.61515138791751  4120.33094861786 10037.91468257795 -41.60778165761604  1886.030458156041 9737.200551483793 -22.56721510284919  517.1035599041325 10820.02896729429 -41.75297554740385  -1919.762758322657 9977.06096712426 -21.48011568953348  -3034.362256297838 10512.16244506287 -41.33045244234715  -5478.20642081138 9192.644744620475 -46.2490271487562  -609.0502435962977 11079.15875157848 4.798851157383535  -3919.451333727689 -9105.793503538944 14.12732969558505  -5175.042648294285 -9624.873947573524 50.07953598529654  -6272.759821378893 9298.548476284155 -28.57208686197765  -8345.276494206038 7396.465180952149 -51.97048330013497  -8734.064173432593 7229.08745305794 0.5743631427736844  -10383.46696866064 4776.537962596478 -31.36722845232792  -10490.16539354465 4530.051851117796 18.65069471599634  -9496.546702113692 4696.298810602257 -37.15062621694761  -8608.619583797061 6856.088762410267 48.45303386460307  -11037.77800557466 2032.476352741757 -41.8762121621392  -9977.70483510948 3853.045471008932 34.60272841223841  -9856.69854278887 1388.045751202082 -12.68490252251439  -10714.70206953532 -1513.757775748707 -41.38392281214198  -7672.549660865341 6005.567104206901 -3.19589186641781  -1775.518236043188 -5095.475580364408 -82.1967232643342  -7282.481469014563 -7665.678636187852 23.82804573203541  -9008.236611254028 -2110.664123899592 16.70057421117451  -9390.448461319607 -4780.267197861188 -31.26514063326198  -11248.13216702658 1286.918438176699 38.5879287732019  -4167.624180543774 7993.909012894923 16.01065288820786  -8616.734925499928 2621.063222799948 -19.82389367363783  2714.610121564448 8145.470491879631 -29.05706173816537  -10738.83173516802 -3758.542031989381 -44.87727734213524  -7428.621293682095 861.8083241807292 65.21951704503579  -5776.45417830082 4750.243090754605 -69.59892585439718  -7017.409613978516 -5356.408873146982 24.57826710540849  -7090.072740320706 -7652.783211280627 -30.86617293521104  -5956.274226118318 8633.979747022304 33.82389111859257  -2913.896494015265 -10635.03140180391 19.24732688929993  -6104.351799843472 789.3255982025519 -85.78016285398303  -8905.102391612738 -1123.243425161333 -37.70871722208619  -4224.385420634984 -7949.106811036268 23.83741292858855  -4054.945382577009 -9675.774923758887 -66.16065049129594  -3748.996995480057 -5177.378981120115 72.8285370396361  5927.15121069788 9535.559598166223 -7.180062230532744  -7996.030133880198 -7959.276723611373 15.95216728948832  -9716.266344780572 -5412.725471772508 37.14437138786764  2164.370830875539 10062.26939790246 31.42767434661278  -812.4188337885853 9306.679031507199 -6.468372917881027  -285.1562936106479 7213.646948559382 -57.16970155521267  -3470.156157099507 3076.767667698711 -83.87991381157616  -5679.502403359233 -6550.201931826989 -28.33198766347238  2959.551971197213 7997.65118126873 27.44843989349516  -6570.818241448345 -9010.02502157886 -36.74284240524025  -935.1243697109951 6236.196629153464 78.47825196302443  -2103.007606814189 2660.85202027737 86.31230454686818  -1334.064025926662 10649.07388688066 41.88769654699971  -2703.58958413952 -1894.959814048585 -77.92241443321512  -884.4589121958907 -9721.577596146519 -11.00202726308345  -5830.196955552309 -3034.650038179533 -74.09174271673368  -8709.398328096881 -4720.059207967137 -4.792425290834871  -10485.82173262608 -2195.674615646847 53.71332267954719  -11054.99381422322 -2742.419568710283 34.02688955089033  -11522.08803883535 -372.0008184790124 -20.31563899271273  -4912.564372564961 5273.851125581269 67.38595106997104  -7292.388335759018 5695.246372427062 12.78473498274332  -1042.382608194029 -10682.04991042642 -52.53147194405904  -429.0310626166307 8852.684303561011 17.13673494123753  4689.944646128937 9863.374992343355 37.85256509940868  10387.7382323627 -2970.944931001186 30.5822383820834  629.7231293765601 -3474.116165062107 81.79175721453163  1846.195217808406 -10827.87506164194 -40.43719142200463  -3825.37995503121 7734.762816713332 -25.53171579398474  11090.90193998869 2790.57432159433 -30.63788151576222  7468.910031829834 8108.440971054026 54.35695773221511  8689.192673366351 7249.533559660047 -5.513813348488005  -8996.087219477278 -6672.451684648815 -33.92964163814945  -3844.533681640066 10454.29759666804 24.72677101349655  -6466.62268430005 9025.322321818163 35.13574191156589  -704.1967678563306 -7485.282476007527 62.20817174713369  -2984.841417401342 -1367.72680695798 81.43851479953491  -6293.891855695317 -2194.010890545943 77.58006596298139  2677.500523978268 10826.62058124716 -19.54064295886228  283.9928597175837 -10998.54369309016 28.19780131389821  6744.710340540159 -7436.424771466258 14.80809781419086  11096.20794118088 2836.095503689479 26.96466049545126  5580.641308723414 -3284.217628711492 -63.4179055762682  -9881.791437500498 -5910.18390559169 -2.550231072359718  -2277.315185510291 -8016.513173220099 -46.40244294056447  6149.198115791007 5884.757825595767 39.21322774404899  -10393.25488448188 937.7837931586894 28.06766025029606  2789.146113241053 -8921.53898182563 -4.902226469606006  3128.297023452981 5935.435444639501 -73.15592170765683  1656.035621427085 10821.25958997705 29.53759472655167  -7544.266973730268 7278.831893205581 -35.85413252596268  9871.069223867438 -5439.043443450157 -22.10781644071349  -200.9521495784218 3180.822857552295 -79.4346115475488  9129.588004563871 -5445.357303773124 23.47701919837735  -11230.02475052209 2646.84561337197 -1.348694189242215  -5991.96241881155 -9556.461834444326 -5.446483928817694  -3662.335902266266 -10334.09540454112 -56.74705863868915  10397.80198700393 4884.692735722399 -10.73950089580013  -2850.716326723808 6060.589068460318 -64.9159992338038  3545.752010799019 5489.722500683849 67.50042803584978  -4314.897343550577 911.4731843145012 81.60519235580847  -4332.235804323096 9923.553587951816 50.85114070648282  10040.55727654149 -5072.670120226614 35.26113122350644  -843.9165635123709 -11015.51804285254 -21.38362445136659  -8110.637197107884 3166.348630441324 38.10311343483193  -5595.386910316123 2713.943943452598 76.27285683135835  -3410.960425864851 9384.660039858885 28.8283846598398  -8190.999487066664 -7888.130460140055 -14.69721427003415  -7.324410809263 0.9279638797023735 0.7628514439990055  -4103.721760300145 -4851.266280421418 -1.84753813782402  6164.836797993771 1886.741613003753 -0.8598524082141876  -2471.134321014936 5094.437917391248 -16.70853066198454  4618.201065213714 -3610.558366480461 -12.654962282943  -3027.059233191005 528.0753160061557 35.06837511956675  -6348.50903130312 939.4734404042414 -3.670850277185773  1220.78864763668 5764.181132964786 14.46551402636437  4313.345626566242 -2845.115699702014 27.29070653735552  -3352.128452160156 -530.3991037859428 -31.70621966067591  3210.142474033252 4274.077185121457 -30.25995111261344  -1178.72443408198 -4881.411355202602 32.07830772126684  1044.048163237791 -7026.449751883372 -1.731254810513043  2551.869382166907 1868.663883109198 36.31078933603504  -1
[...]
<PointData  Vectors="Self-Gravity"> 
<DataArray  type="Float64"  Name="Self-Gravity"  NumberOfComponents="3" format="ascii">-2.3703864974176111e-08 -1.3786014518390622e-08 2.3573945698546375e-05  -1.1507097995790038e-08 -2.2945091513832155e-09 -2.4344142429442778e-05  -9.6355855963656066e-08 1.1291673162024753e-08 -1.7798509132854875e-05  -2.2795326006178931e-08 2.9565104860626771e-08 -1.5400506525627236e-06  -6.3626234365281722e-07 -1.7846282622965505e-11 -1.9403158030309505e-05  1.4275050830542734e-07 -1.2835939467571743e-08 1.0803427609334187e-05  1.5950620985863721e-07 -6.4548282380324246e-08 -4.0972226223643195e-06  5.6910704011392953e-09 -3.2231900140759321e-08 1.3646897205270174e-05  -2.0556640398163300e-07 -5.6605961152878940e-08 3.4873136956878944e-06  -4.7573325578120394e-08 -1.2041681874567906e-08 1.5139614112466146e-06  -8.5459477381161644e-08 4.3637109085606947e-09 1.7073677977180257e-05  -1.6201453195944493e-09 3.0658340138122657e-08 -8.2744023479400197e-07  -3.7975694864658383e-08 -3.0794605237518311e-08 4.1336089973363212e-06  -2.5485541557463063e-07 5.5445003241991287e-08 6.1468372304639554e-07  5.9310691890662357e-09 1.9743675023759410e-08 3.8584668583919063e-06  -2.4369484953799138e-07 6.3655540140503185e-09 1.5784071451929832e-05  -4.1057651845175288e-07 -2.1276814900912660e-07 -2.6867558057674645e-05  -5.8714558714352533e-08 -3.9871074006893092e-08 -7.7851656782123527e-06  -2.6551791188825681e-09 6.0272844859231456e-08 1.0424201366737475e-05  -3.3612153544239774e-08 2.2488483843803500e-08 2.4150528073878250e-06  -5.2991172264515396e-08 7.4084430269432116e-08 -2.4995905142911081e-06  4.3624198983438697e-09 -5.4965367881395033e-08 1.5583283632484020e-06  -4.2323758001142195e-08 9.1811001197683796e-08 -3.1158559695666480e-06  -1.2865035636406222e-07 8.0245223941267417e-08 5.1221446021851142e-06  -1.0914717282111023e-08 -3.4846376430431180e-09 -2.1890718509590023e-06  -3.5168538319899321e-07 4.0070933514889253e-07 6.2883824630407036e-06  6.6219107284803018e-09 -5.2733691922597781e-08 2.8743989397933700e-06  -2.9970914937684938e-08 2.3960651428773276e-08 -1.1691643855965253e-06  1.4880857997987109e-08 3.0137653237167386e-08 -1.4100482645226079e-06  -1.9933858793208865e-07 5.5184380585311457e-07 1.4662091027726645e-05  4.4439830093888915e-08 -9.5855867098316638e-08 2.2470432032994841e-06  -1.0854420738598981e-07 1.0129938489559584e-07 1.6969471914730285e-05  -2.9332900344978845e-07 -1.5696931808840191e-07 1.0232875547434188e-05  -3.6536743955027377e-08 -1.1602661328880700e-07 1.1391144052541036e-05  -2.7194557079611729e-07 -2.1285036344443723e-07 1.0998853472503242e-06  8.0050378475118680e-09 -1.2428366932145999e-08 -4.2150248292576017e-07  1.9404095685630875e-08 9.0093178857176251e-09 -3.3013842874978476e-06  -2.2779484532000876e-07 -2.0080709372569730e-07 7.5949663399720178e-06  1.0118126389380141e-07 1.4299713964515471e-07 4.6548235374022382e-06  2.2960906463548998e-07 -9.2312380426306390e-08 -5.7713423045539141e-06  3.0032600869116757e-07 -2.5093116710250405e-07 -1.0705768419940943e-05  -2.4448015514162429e-07 1.4095197074093315e-07 -3.8356212913621788e-05  -2.1949266732629262e-08 -9.8967863760331723e-08 -2.0475180223278111e-05  7.7947029403112710e-08 4.8319273316995571e-08 6.7583185696324459e-07  1.6491917028172277e-09 -1.4895481201527064e-09 2.2343965176927008e-07  -2.0469190681035352e-08 4.9339749717821525e-08 -1.7387187056040410e-06  1.8082520375073951e-08 -2.6286933820155615e-07 -1.6545855176358366e-05  -1.5763957032527251e-08 3.9840068844892660e-08 4.2220926303785458e-07  1.4927313276015203e-07 1.5080178163149896e-07 -3.8865196977338987e-06  -7.4395560745733017e-09 -7.8733998741368189e-09 2.3105602994322397e-06  -8.1325860835826150e-08 -1.4471543137114441e-07 4.7629331833207921e-06  -4.0767868342425360e-08 -1.1711013554042782e-07 -1.2438869226425983e-05  5.0155666109974776e-08 -1.0225653764517077e-07 2.2077605830967944e-06  -3.0107495862261258e-08 -1.7671016715996823e-08 -7.8539494885290342e-06  -1.0761442561090935e-07 -1.1038699561968753e-07 -1.5104284379018729e-05  -3.3570836201608311e-08 -2.0349746539977752e-08 1.5804359491744969e-05  1.4423354238041986e-07 -1.3543505914624770e-07 -1.4216526198856918e-05  5.5643526362018612e-08 -8.6662532730189553e-07 -4.5090202073433888e-07  -5.0623948047560927e-08 -2.9967737750376348e-07 1.2112305216962820e-05  2.2514414421174157e-09 -6.4354761611833473e-08 -1.1928530982148592e-05  1.5231660504386209e-07 -1.9229261137543108e-07 -7.6319897997481485e-06  1.4924286301200734e-08 -3.1234182282503632e-08 -6.8173069047507283e-06  1.8382937316796506e-06 -1.6414801355066815e-06 -2.7419064595147209e-06  -1.8682416735491859e-07 1.4881008828814311e-07 -1.2846716241908423e-05  -1.8131696222269635e-07 1.8574224419175572e-07 1.1177552852752783e-05  -5.4234174838315835e-09 -2.1488408442363348e-08 -2.7369597598815758e-06  -1.1877875442156716e-07 1.0551552932007888e-07 -1.1770969955363181e-05  8.9277476102261724e-08 9.7894835340788726e-08 -1.3137040245437530e-05  -2.9795465649828443e-09 -2.4550407087109631e-08 2.4527994343311978e-06  2.8842385168480573e-07 -1.5777841454684616e-08 -4.9176912176632896e-06  7.5190672636250204e-08 -4.6082836089707457e-09 -7.8687543924998203e-06  8.9400139140278471e-08 -2.7163966343134453e-08 -3.1615750146049922e-06  2.5488405995618977e-09 7.2064503350248760e-08 6.6438761926983432e-06  5.0402375633324762e-08 1.2367415084594164e-07 -4.6828265736315009e-07  2.2512523029025507e-07 8.5374300663140080e-08 -5.1373524340377643e-06  6.6032661246683067e-08 4.8397718551242488e-08 -3.1441237024698038e-06  -1.5346053185688542e-07 -1.0036482668573757e-08 1.0046794214784085e-06  -7.3552619933679044e-09 8.0945410330710829e-09 2.0083156312588858e-06  1.8571036527889257e-07 -6.1616332276464897e-08 5.9204543096114295e-06  -2.8260140904567215e-08 -1.2352640609158005e-07 2.0635981120155981e-06  6.5822017870074282e-08 5.3624232861347891e-09 -9.0842825919432077e-07  3.7364785827822099e-08 -1.2596140433349088e-08 -4.3989888865297584e-06  -4.3405388528829205e-09 -1.6503916174649544e-08 1.8800290847628718e-06  1.2481072643215269e-07 9.5578436374096565e-08 -7.6798413936820532e-06  1.9790893408696106e-07 2.7770915437701729e-07 -2.9901260671581302e-05  5.4399173230136101e-09 -3.5946640992712978e-07 3.7201776155659578e-05  1.2274465673080113e-07 4.5085109804160616e-07 -2.3412722896483386e-06  1.1974394742916381e-07 -4.0442887974671370e-08 9.0172969768689678e-06  2.4871628316002108e-07 1.9983249620534469e-08 8.8709717112303005e-06  8.9563574251446148e-08 1.7430242045686353e-07 -2.3710422084547763e-06  -3.4298031769042416e-08 -1.2907194239741929e-07 2.0296691269082554e-05  3.3291352301914349e-08 4.1730245453976347e-08 -3.4587870332563631e-06  -5.4032258215621766e-07 -8.8400072711549561e-07 -1.8507388123140287e-06  1.2134930485280090e-07 1.4931951185709749e-07 1.7422546647293644e-07  -1.0918916691912087e-07 5.6699149255294827e-09 -1.3474818966952912e-05  -7.8314700210596724e-08 -1.9244994916738677e-07 1.7336541048635386e-05  -2.7269996659083720e-09 3.8802270089125567e-08 -3.1381465725697076e-06  -4.0169565304247740e-09 -1.9076788093508584e-08 -8.5375928281562304e-07  -7.3386706029467884e-09 -4.8001266194775325e-08 1.4253510398428483e-05  -6.4996682078239170e-08 -8.5105387833105960e-08 -1.0850541718951939e-05  -2.8163736376132116e-08 -1.2638778106994383e-07 -6.4590816366001792e-06  4.0243013595724637e-08 -2.1601607925748891e-08 -1.2572423153421389e-06  1.3098928565545715e-08 -2.0434658584509078e-07 -1.5159640049146172e-05  5.5950006312987075e-08 -8.5582753744010947e-08 -1.8127276534784876e-05  6.3125834960424281e-08 -7.4343422406648370e-08 1.3012538955678977e-05  5.1053414871091072e-08 9.3118786700944532e-09 1.9005384024454138e-05  1.3956214439796410e-09 -3.1267453089241234e-07 -2.6316179071882482e-06  -3.5286862949548449e-09 5.6039487834512850e-08 5.4684530827760873e-06  -1.5655068843895613e-06 -1.0850910473150863e-06 2.1953713114258184e-05  3.7400126161489278e-08 8.2230968248093614e-08 -1.6988364615686463e-05  1.2387246402721984e-06 3.3327401706411000e-07 -6.4783454175263194e-06  -1.8475317190768148e-07 -1.7730727272496902e-08 3.0492811946567910e-07  2.9251053094071286e-08 5.8216176827014569e-09 -2.1512498290996827e-06  2.6893167737095973e-07 -3.9821811756576165e-07 -6.3512681833044067e-06  5.0067459620708761e-09 -2.1069339803612940e-08 6.1886861203382010e-07  2.4265858084563112e-08 -3.0616909227557744e-07 -1.2034922169465295e-05  -1.1304267974711080e-08 -3.1634951199005229e-08 5.3433371250581014e-06  -2.9679350641048642e-07 1.2120129059864712e-07 3.2672423046026658e-05  -1.4322422588636500e-08 9.3310172457135127e-08 -1.2640546122188690e-05  -1.9712816503195176e-08 2.2105732160161000e-08 -3.2815491162611442e-06  9.8391574492827620e-08 -2.2037591172980844e-07 7.2093477131918220e-06  1.0864224032550767e-07 -3.7058459496333008e-08 -5.0664635934781510e-06  2.7962860717407517e-08 6.1927225928127450e-08 -1.2681551584102538e-06  -3.1072439644501944e-07 -3.6178059773379591e-07 8.4472457568108339e-06  2.0075709706900558e-08 4.9072767042352786e-08 -6.1622567105181954e-06  2.8029615569172646e-07 -8.8544763525517008e-07 -6.4373656159725718e-08  1.8259597812160844e-07 -2.7689641989394187e-07 4.0185621015765267e-07  1.1431440779661126e-08 9.1171835200512506e-09 -1.9167778668099219e-06  3.9289621917461988e-08 4.1219494708371178e-08 -2.4941014178563435e-05  8.2665905792267059e-08 5.7030006159783114e-08 -1.0447502207389781e-05  3.7748227080918743e-08 1.4822615925288901e-07 1.9421874419031593e-06  2.6324010797174885e-08 2.1376576936494843e-07 2.3574656627743000e-06  -1.4796328839098654e-07 2.3498771478859425e-07 3.3029987210196106e-07  -5.9438848339880902e-08 6.8823007467034174e-08 7.8892974564764781e-06  -1.0628421010124636e-07 5.2168530863811444e-08 1.0927160905951917e-05  9.6025011207938910e-09 9.0299154866247556e-13 -9.7792535374365655e-07  1.4358528670478952e-07 4.4026126755478624e-07 1.2583166929928957e-05  3.7353514709247562e-08 1.9009808237772269e-09 1.4451712337774446e-06  3.3099396801885768e-07 2.2249208801581056e-08 1.0482657368309378e-05  -1.4377175035555036e-07 5.3071944250841127e-07 -1.2564909785252602e-05  -3.0834020667460377e-08 -1.0512113751096439e-07 6.3959400708895734e-06  6.5158959661731194e-08 -2.1771904201298548e-07 -2.5595126859307054e-06  2.0019119714622719e-08 3.0159236904046194e-08 -3.5209819456682174e-06  -2.6297243571234310e-08 -1.9963576534026136e-08 5.0284919431549786e-06  -2.6678697627198506e-08 -7.7562295813975344e-08 1.0939118385660654e-05  1.1500223523118889e-07 -9.9773110644965103e-08 -2.0857166024888424e-05  -1.2758142400265901e-07 -8.0539399415235094e-08 2.0332752805612518e-06  6.6762600766312102e-08 5.1651666020419176e-08 6.6361907556653366e-08  2.8019646202156822e-07 1.0216996553701930e-06 6.5774640669259857e-07  1.0846499136638445e-07 3.5942966961522789e-09 6.0219094614700705e-06  5.3458679086901685e-08 -7.9790912688733423e-08 8.8403981005942398e-06  -9.0818719756843513e-08 -2.5188925882747747e-07 -1.6962890810872937e-05  1.6313510621792651e-07 5.4821272268509496e-08 -2.4511945430412953e-05  5.8514068308879589e-08 -1.6345125514464850e-07 1.3928497006110517e-05  -1.5616374282490306e-07 1.5964618144038066e-07 3.6242079736442780e-05  -2.1431335908629993e-08 1.4475630428618074e-07 -3.0344202750012545e-06  -2.5720448199972583e-07 1.1553124886048865e-07 8.8407795384587338e-06  1.8544272161738408e-08 -4.4655041156189046e-08 -6.8231460591717209e-07  7.3767405802179497e-08 -1.6278126326766615e-07 -3.7424246685391963e-06  2.9813054471710339e-07 3.3982411896206033e-07 6.1355726933007307e-06  7.1528290488580066e-09 8.4090858346503629e-09 -3.2586657035381201e-06  2.6371166635940258e-08 5.2615759940364807e-08 5.3768717496333994e-06  8.7623788969112699e-08 3.9960888754168702e-08 3.0963065255774750e-06  5.2360341596631701e-09 4.5437604565838502e-08 -5.4193160719532292e-06  4.0480409863971024e-09 5.1516960359637065e-09 -1.5659471945963956e-07  6.8325075463901500e-09 -1.4544774018834044e-08 -8.1426244727425553e-06  -1.5300932420482106e-07 4.8352048499464257e-08 1.8435121938991872e-06  7.5522984115836698e-09 -7.7171699377537392e-09 2.1770410273353750e-06  5.4365178624521271e-08 1.2293954128376973e-08 7.0200224006377960e-06  -1.0076987284092098e-07 -4.4534123522896900e-08 -4.3924773305591133e-06  4.3899184516052402e-08 7.1484039727358695e-08 -4.6620328554706613e-06  -5.2396822314334475e-08 -6.6496781631668854e-08 8.0766622800497188e-06  -9.1457847198544695e-10 1.0208808541701927e-07 -1.6182301615014432e-08  -5.3764507181950708e-08 -4.4859682242236233e-08 -1.3235645488008797e-05  -1.0086532289926380e-08 -6.1641043994147720e-08 3.2094476729605511e-07  -2.4748110848508865e-08 1.3800827177179149e-08 9.9171282861050310e-06  2.8094107934196923e-08 -1.0174618912683613e-07 3.7495302211002299e-06  4.2044032662006368e-08 4.6390290939417825e-08 -4.0586846646082755e-07  5.5898419664820560e-09 2.9339123429720471e-09 4.6553686847014261e-06  1.4858749516954839e-08 -7.9664047668642981e-08 1.2853237016590530e-05  -3.7057646400329198e-08 -1.9683784715912986e-07 -2.2797995470514309e-06  5.1293800270335937e-08 -2.6904343951946283e-08 -2.3230983333735493e-07  -2.0569592261086224e-07 -2.9902127811314366e-07 -2.3504071546373181e-06  5.5281080548701494e-08 -1.5889191257101785e-08 4.6638872212645780e-06  -2.2463293086183552e-08 -1.3710225741682395e-08 5.5784536258278322e-06  -3.6952178548723252e-08 -7.1941082600778845e-08 -4.7873614728489897e-06  9.8703964758970793e-08 -2.1367186241166137e-09 -4.6198196514442565e-06  -3.8592972668042932e-08 -4.7182583637987879e-08 -3.9185325094310406e-06  -7.9757858744471557e-08 9.5588060510898128e-08 5.5416294530980492e-07  -2.4413237425901663e-08 -1.7830701145893219e-08 -1.3847761278346262e-06  -1.7141835378956677e-08 3.0499551042629197e-08 -1.0925963882257497e-05  8.4159036427547772e-08 2.7887384550896757e-07 1.0748054318528382e-05  -1.2649460633059705e-09 1.3559975065693963e-07 -1.4875216021330165e-05  -5.9068763535855275e-08 1.3905904052476077e-07 -1.4137253318217450e-06  4.0393043676723512e-07 -3.6497651002172298e-07 -2.8991505540901049e-06  -2.8159852959794133e-08 5.5805342519326732e-08 -6.1363129388788013e-08  8.3549061562447174e-08 -2.7057010015361055e-07 -2.6990184265608553e-06  6.6759805486916801e-08 7.0240689548489035e-08 -8.1507884984191521e-06  -7.2194877181913411e-08 -3.7583533116471644e-08 -4.0204561012465313e-06  -3.5852607526525481e-08 -3.4770516655517103e-08 2.3642198510111913e-06  -1.0207282765544354e-09 1.5615661156813129e-08 -2.3147206240363355e-06  </DataArray> 
</PointData> 
</Piece>
</UnstructuredGrid>
</VTKFile>