<?xml version="1.0"?>
<VTKFile type="UnstructuredGrid"  version="0.1"  >
<UnstructuredGrid>
<Piece  NumberOfPoints="201" NumberOfCells="657">
<Points>
<DataArray  type="Float64"  NumberOfComponents="3"  format="ascii">-1.036354070732065 -0.4851988820064306 760.3806312320564  -0.5101867058033143 -0.08587183029620128 -761.3037800360916  1957.97654189783 -0.4718396007705012 -735.5353558412847  3694.301032024272 -1.280415966334568 -651.4636291808587  5027.085730794261 -1.470826792365797 -505.141513219292  5854.44419910492 -1.671748055593625 -276.430160053957  6134.799168441545 -2.359447519869696 0.4314504985382208  5854.780890274741 -2.53063712911174 276.2195229536155  5026.98843463862 -1.823565598269431 504.3723455575559  3693.951227913596 -1.428412726816742 651.8419114542597  1958.083219594388 -0.05328035826293781 734.2374777564507  2468.237774110871 -1827.36552778537 -690.2798829591296  2457.281735115267 1419.2599182048 700.8388834354212  5844.529139064471 -1584.810490901194 -134.5540268312517  4274.991601165953 -1755.229664449368 561.1403028805702  5347.061451013935 1609.521873389543 372.473624642406  5326.656774129223 1607.888695763539 -378.0615509567411  2754.832104875966 1632.76106502209 -683.1754775345275  953.7063201128792 -1643.439990130036 735.3918974360682  4249.233377390708 -1618.907215718272 -570.3394369092656  2960.659086850772 -3179.519529077014 -585.6916459544161  4359.968807448786 -3086.363550037849 -423.2400902454364  2985.859059520617 -4408.242430465438 -409.0735827635118  4182.133400382418 -4109.786660544907 -207.2367447139917  2622.782906686578 -5213.793628113145 -176.2341586765618  3729.61896772704 -4670.8184283967 45.10751435697966  1958.070677689234 -5565.408461649924 80.19522360406899  2852.52453277075 -4852.179432827043 301.751569810364  1027.684849727184 -5442.40146504634 318.9370728164414  1841.488907838983 -4476.556141073513 507.459711608805  -72.89984208745391 -4808.552369754673 507.9895702338802  4372.225798179166 -3807.134751175573 254.9179476047583  4251.765792770724 1615.755888890768 570.2033476065515  4275.643421276881 3105.67352437949 437.4858581168784  5137.240587153219 2952.882277559706 204.5141940892805  694.4333368599495 -3609.973409710776 641.3360650547356  2543.799209406583 -3157.771669106326 613.428652699438  2965.216329679824 2999.115046915968 600.9766472750314  2830.3558158432 4345.595243529793 441.7924272771832  5856.617366117468 -1546.66259562403 134.9399008008508  5161.584975369298 -3190.283460740061 16.048909554946  5359.582136776183 -1613.555513888642 -367.9927480359191  954.7720058569071 1643.122241640962 -734.3361861027613  4210.796445328602 1577.226204180206 -577.1170008253207  4242.841432936226 3089.828059740313 -445.2608415648519  1277.760484245682 -5286.997256235332 -357.3417071564412  -897.0687154232658 -5505.884417627975 303.0022405263792  1270.560594891629 -3280.723772378517 -655.3905130147335  5103.437504779477 2990.439273232076 -211.3881415565163  3820.1767671029 4322.802575509248 -254.0230662561538  2735.667863509909 4242.76748008793 -472.1279109967139  2144.078296728333 5246.022335189855 -272.1352273555009  954.9734750540352 4961.11434293748 -460.7066554506487  277.3352657511083 5677.164523427798 -247.5630752478622  -974.7763695957108 5098.588595241054 -427.2878886837548  -1597.456609690003 5568.291288332027 -188.1108443012176  -2826.952480130969 4773.897166487864 -334.8370469127782  -306.9039517009652 5888.224955382915 17.18294637938744  -1984.236938420777 -4612.930489835626 472.0100491143015  -2716.618031808989 -5058.21325046026 243.3237884932186  -3303.473116850277 4936.730899408827 -92.87821115388221  -4370.474531952752 3871.099642402276 -232.6238674161163  -4642.931267454196 3851.378670059725 20.96233686805575  -5454.239131656864 2542.459443576458 -146.2623937351457  -5527.248198810037 2413.110398799508 135.3676794439728  -4876.087078320499 2427.055289608794 -403.6411289761616  -4482.875882096459 3578.184838740831 290.4230605117335  -5778.995927402209 1059.338675855466 -263.1566412457788  -5137.164458604816 1996.927589191974 389.2897715157808  -4967.549743997713 688.0184824537118 -506.2094170014003  -5541.313415451037 -769.3091784861905 -371.8232715986172  -3846.828744595937 3028.877571281224 512.7137118640875  -873.8343453714352 -2515.050454788146 704.3212604910246  -3727.444029619353 -3930.233074923751 391.6534759181103  -4482.112632402833 -1051.984727980748 -565.2206756943737  -4802.662967988739 -2451.277329137081 -417.7771551345949  -5906.819898891193 673.4049079563506 227.6183072620147  -2084.534986948899 3997.093752106393 -560.5253485959568  -4272.931837478356 1300.44592504526 582.4325984774327  1346.411436359815 4046.574168903763 588.5025092997527  -5683.500475578365 -1992.707474171568 -154.4635291255369  -3657.02393959439 425.1345265580402 -654.0936782374183  -2847.908080072608 2330.390214298953 649.1415734017778  -3494.854876668241 -2663.2856706242 -584.6211886120584  -3625.951659811596 -3926.645260677987 -410.6891137867829  -3051.609105163652 4422.979560175545 395.6160028796742  -1549.172622674469 -5694.518206609429 58.8470090045442  -3012.653534114239 394.2311653453929 691.7291024981748  -4409.306877186971 -561.0811379246777 584.9262731820668  -2110.478022212507 -3971.331980204264 -560.8360860625593  -2096.848873905759 -5012.795090903855 -366.5593950655421  -1837.750696387326 -2541.56870967295 -683.6825487610859  3115.324918980369 5076.354881596643 -25.66013864036361  -4192.560917894549 -4189.278713910325 159.7019608712405  -5056.151441049562 -2834.23976108805 278.0481151313327  1109.236815135318 5157.330794037871 406.552321094809  -402.5356984005239 4680.283804174498 525.1187098357411  -139.8725629455482 3559.562784405916 653.2512238218342  -1713.99229540705 1516.376748505312 724.0222568212562  -2824.819527683973 -3250.189644616451 589.8727532506047  1475.844329834033 3958.972180385545 -592.8015598075212  -3448.17754536476 -4720.248612806722 -196.8511931737311  -465.021022194321 3061.205655043588 -682.4723871735395  -1040.195089554663 1320.576872508931 -741.6781072782882  -685.4746569908291 5532.770361598409 302.2725596814681  -1340.034973612086 -936.4118147923311 741.4886805199212  -450.2705522558285 -4891.960999891387 -488.3701884059133  -2875.506790202683 -1491.007669273715 681.7186740595309  -4375.561690157492 -2369.839731766268 503.6984017085825  -5411.814305092706 -1130.946521205244 391.3120265940035  -5881.826324251459 -1459.177247176129 127.6896517346364  -6107.832930463875 -187.9651938304677 -79.44030970633827  -2414.969722799414 2594.958437800354 -658.7073577149705  -3632.5437041316 2846.165233115601 -555.9781075357217  -527.5811336150742 -5573.73386109199 -292.0800615985472  -211.2292845759922 4428.899268648874 -565.3616734664919  2455.153211866223 5194.034494484631 234.3206789492336  5326.019816372148 -1541.826202075345 383.3244296023947  314.5322727872724 -1724.769217062632 -737.4234570771806  969.9562712841969 -5757.381206137613 -139.6321384086894  -1902.118345074355 3837.756464424552 587.430030287674  5869.866573012975 1482.45970869465 -137.4611851518372  3931.282516172413 4281.385848653101 232.1692236436958  4626.155132734302 3870.159932090813 -10.34108143150177  -4697.652649890306 -3510.809267049806 -226.8284928208998  -2033.540291528714 5546.966919368442 70.73397497268405  -3414.775206720649 4787.182413975192 165.3799311437648  -341.7021381578357 -3689.216128882092 -639.7370431520758  -1478.061854501641 -679.0019290407438 -743.5097933141001  -3095.012736498998 -1081.608845676257 -678.9145891804374  1419.01855365977 5730.759878730871 -46.94615151962014  163.2542705379336 -5861.525837536986 100.9529571309842  3424.353038081954 -3766.623797869839 470.1669348372898  5879.035743359321 1501.742552966451 121.9609626228063  2754.66288777644 -1622.308033660499 684.6077896263918  -5192.649685201321 -3140.53453855734 22.27848540236623  -1122.101578631054 -3967.532519233364 602.553522918855  3049.121668971574 2908.038676744276 -600.7484372245806  -5305.035424338211 476.7295714759195 443.9469915648911  1396.424176553851 -4456.786367776121 -533.4076549525063  1543.485178240679 2905.621859259318 672.8441083571472  876.271816539944 5712.350606190855 189.2078789316701  -3848.652103969711 3727.521805701228 -411.0553002982201  5146.040701884235 -2848.741356756638 -234.3259780618121  -96.90663180533741 1584.273715260307 740.333760784588  4683.731090142579 -2788.91025641867 398.2504061603208  -5955.606989655271 1407.399592727383 -20.89725023629386  -3174.018692077241 -5048.925446725887 7.948099650333916  -1941.182888596933 -5514.15483932171 -150.61116032993  5506.923829651668 2601.587608070725 -6.794526646342165  -1404.546486995925 2980.719566144264 672.9341535759864  1751.163178129251 2705.95665691964 -678.9642803969532  -2134.259507159602 448.5333838100931 -728.2868748841471  -2252.524865686413 5179.302230920813 283.9640690610137  5234.335565401807 -2651.078864004875 246.7219152662521  -422.3304007067275 -5857.331544369461 -90.91799799308959  -4011.29141236465 1564.031975176865 -597.3421258999614  -2762.517583348497 1339.237997694975 -691.61175819904  -1733.319684589848 4791.683079057688 454.6576018400393  -4318.205962349965 -4179.15151735574 -50.56989466585932  0.0002546673210264892 0.2178894661087512 -0.09609092074349039  -2015.876526656313 -2376.206106485804 21.36897255764926  3046.208192658806 925.9209638427586 -3.666211460375715  -1215.301682712755 2501.552267662837 173.0509251581767  2273.288573616898 -1773.945481215602 157.4053081152568  -1490.085385476266 261.3427507192384 -341.0222478194551  -3133.271741704797 471.9275904780345 -0.05852193086646304  600.9456602604362 2827.905552313156 -150.8888191636797  2122.600478859835 -1396.647119939459 -233.3099275469184  -1655.967963002237 -265.2018736126916 332.0093148955067  1583.4169065118 2105.175623385635 272.6258743242931  -584.8042929386786 -2404.972390915444 -295.3010915693809  518.6808764472549 -3456.283885287612 1.383964881049497  1264.393982158441 924.7173612508335 -380.39240
[...]
<PointData  Vectors="Tidal Force"> 
<DataArray  type="Float64"  Name="Tidal Force"  NumberOfComponents="3" format="ascii">-2.8145274887466232e-16 -3.8738647501800562e-16 0.0000000000000000e+00  -1.0554478082799837e-16 -1.4526992813175214e-16 0.0000000000000000e+00  8.3294533765711942e-13 1.1464509034920370e-12 0.0000000000000000e+00  1.5794917177284392e-12 2.1739838438154212e-12 0.0000000000000000e+00  2.1648184450849917e-12 2.9796169689175548e-12 0.0000000000000000e+00  2.5360264755757840e-12 3.4905409908188029e-12 0.0000000000000000e+00  2.6630390648241972e-12 3.6653588223325523e-12 0.0000000000000000e+00  2.5358892673607079e-12 3.4903521399122319e-12 0.0000000000000000e+00  2.1647199366228857e-12 2.9794813836512984e-12 0.0000000000000000e+00  1.5794037637444162e-12 2.1738627855419785e-12 0.0000000000000000e+00  8.3305088243794735e-13 1.1465961734201686e-12 0.0000000000000000e+00  -2.2635837328244717e-14 -3.1155557253323105e-14 0.0000000000000000e+00  1.8832038608797266e-12 2.5920077466764140e-12 0.0000000000000000e+00  1.5874744213183968e-12 2.1849710927131200e-12 0.0000000000000000e+00  7.9584634719607805e-13 1.0953885237537260e-12 0.0000000000000000e+00  3.2727149731177688e-12 4.5045057198546818e-12 0.0000000000000000e+00  3.2630224440783979e-12 4.4911650981212492e-12 0.0000000000000000e+00  2.1386151941647607e-12 2.9435512880933787e-12 0.0000000000000000e+00  -5.5891590503402619e-13 -7.6928174675263112e-13 0.0000000000000000e+00  8.6567477419188172e-13 1.1914991082056933e-12 0.0000000000000000e+00  -6.1232508229235437e-13 -8.4279317271823531e-13 0.0000000000000000e+00  4.2861735494250138e-14 5.8994117814304528e-14 0.0000000000000000e+00  -1.3384063293611257e-12 -1.8421582739768734e-12 0.0000000000000000e+00  -6.4711967837198459e-13 -8.9068382569233653e-13 0.0000000000000000e+00  -1.9838513638773061e-12 -2.7305371501428528e-12 0.0000000000000000e+00  -1.1804198650990559e-12 -1.6247085608873914e-12 0.0000000000000000e+00  -2.4836059010978785e-12 -3.4183902598466991e-12 0.0000000000000000e+00  -1.6648422638246806e-12 -2.2914587923646315e-12 0.0000000000000000e+00  -2.8060205794118863e-12 -3.8621559939726377e-12 0.0000000000000000e+00  -1.8669570009509368e-12 -2.5696458624059992e-12 0.0000000000000000e+00  -2.8884369806011094e-12 -3.9755924385197847e-12 0.0000000000000000e+00  -3.8315218152116058e-13 -5.2736373543482427e-13 0.0000000000000000e+00  2.7843557540672592e-12 3.8323369200581262e-12 0.0000000000000000e+00  3.6956610551704461e-12 5.0866410605261140e-12 0.0000000000000000e+00  3.9959535474229053e-12 5.4999582177156372e-12 0.0000000000000000e+00  -1.8337174313088388e-12 -2.5238955197063729e-12 0.0000000000000000e+00  -7.7734786527629086e-13 -1.0699275476831677e-12 0.0000000000000000e+00  3.0475949919303705e-12 4.1946546478115297e-12 0.0000000000000000e+00  3.8098780988231450e-12 5.2438473344193583e-12 0.0000000000000000e+00  1.6154895243095087e-12 2.2235305739702246e-12 0.0000000000000000e+00  3.2860312062989014e-13 4.5228339424539708e-13 0.0000000000000000e+00  1.3546004168995012e-12 1.8644475232832218e-12 0.0000000000000000e+00  1.3709317126529536e-12 1.8869256234961418e-12 0.0000000000000000e+00  2.7427887012178323e-12 3.7751247800289040e-12 0.0000000000000000e+00  3.6717586804722652e-12 5.0537422641352088e-12 0.0000000000000000e+00  -2.6026991136248304e-12 -3.5823080044196308e-12 0.0000000000000000e+00  -3.6767544667647904e-12 -5.0606183740667793e-12 0.0000000000000000e+00  -1.3925085840135574e-12 -1.9166236391372094e-12 0.0000000000000000e+00  4.0025536143840163e-12 5.5090424305548105e-12 0.0000000000000000e+00  4.2419010320270295e-12 5.8384758889101220e-12 0.0000000000000000e+00  3.7044423809353356e-12 5.0987275185466755e-12 0.0000000000000000e+00  4.0651381512556585e-12 5.5951826556060016e-12 0.0000000000000000e+00  3.3647148404061739e-12 4.6311326738761925e-12 0.0000000000000000e+00  3.5157036856993475e-12 4.8389509907305380e-12 0.0000000000000000e+00  2.6165078891164940e-12 3.6013141533502019e-12 0.0000000000000000e+00  2.6404595180457278e-12 3.6342807423742338e-12 0.0000000000000000e+00  1.6279367721284903e-12 2.2406627408278957e-12 0.0000000000000000e+00  3.3949393474759518e-12 4.6727331389621878e-12 0.0000000000000000e+00  -3.5994393966489204e-12 -4.9542033093793326e-12 0.0000000000000000e+00  -4.2024835745471337e-12 -5.7842224130838505e-12 0.0000000000000000e+00  1.5238872090288889e-12 2.0974508033446767e-12 0.0000000000000000e+00  4.2087036802972629e-13 5.7927836541817475e-13 0.0000000000000000e+00  2.9175391948347498e-13 4.0156482000366468e-13 0.0000000000000000e+00  -8.4317262691935248e-13 -1.1605275595280036e-12 0.0000000000000000e+00  -9.5273162757817581e-13 -1.3113225872597002e-12 0.0000000000000000e+00  -6.5964080753754607e-13 -9.0791768149969980e-13 0.0000000000000000e+00  1.9709784187756509e-13 2.7128190612417168e-13 0.0000000000000000e+00  -1.8720372230681243e-12 -2.5766381882800745e-12 0.0000000000000000e+00  -1.0292691844752792e-12 -1.4166674968099089e-12 0.0000000000000000e+00  -1.7318667178098205e-12 -2.3837100390592320e-12 0.0000000000000000e+00  -2.8561297231896592e-12 -3.9311253135186553e-12 0.0000000000000000e+00  1.4383642731239620e-13 1.9797385805795183e-13 0.0000000000000000e+00  -1.8519168696829467e-12 -2.5489448976472247e-12 0.0000000000000000e+00  -3.9538622888286996e-12 -5.4420245703766946e-12 0.0000000000000000e+00  -2.5500744859039906e-12 -3.5098764182531388e-12 0.0000000000000000e+00  -3.5357079398256144e-12 -4.8664844844424442e-12 0.0000000000000000e+00  -2.1595869421152841e-12 -2.9724164228131573e-12 0.0000000000000000e+00  1.4747737043502603e-12 2.0298518634540346e-12 0.0000000000000000e+00  -1.0643522696225058e-12 -1.4649552209209033e-12 0.0000000000000000e+00  2.9742800690078816e-12 4.0937453134002768e-12 0.0000000000000000e+00  -3.6605076068360007e-12 -5.0382564897963656e-12 0.0000000000000000e+00  -1.3137369959222612e-12 -1.8082038494415450e-12 0.0000000000000000e+00  1.5660030947386210e-13 2.1554183470001837e-13 0.0000000000000000e+00  -3.0782698233983476e-12 -4.2368749312575546e-12 0.0000000000000000e+00  -3.9066063722926443e-12 -5.3769823812211710e-12 0.0000000000000000e+00  1.3182543125416997e-12 1.8144214023655843e-12 0.0000000000000000e+00  -4.0835240520758960e-12 -5.6204886770865527e-12 0.0000000000000000e+00  -1.0534424574442517e-12 -1.4499391526830182e-12 0.0000000000000000e+00  -2.2257494470569951e-12 -3.0634812984280153e-12 0.0000000000000000e+00  -3.2617207251148521e-12 -4.4893734356742907e-12 0.0000000000000000e+00  -3.8977265380656484e-12 -5.3647603379343539e-12 0.0000000000000000e+00  -2.2814595005373733e-12 -3.1401596088268920e-12 0.0000000000000000e+00  4.3942302960367181e-12 6.0481391338517417e-12 0.0000000000000000e+00  -4.3261328034464931e-12 -5.9544109762211347e-12 0.0000000000000000e+00  -3.8851420820315903e-12 -5.3474393201701107e-12 0.0000000000000000e+00  3.5533339182238903e-12 4.8907445624404463e-12 0.0000000000000000e+00  2.6062489364200118e-12 3.5871939163357949e-12 0.0000000000000000e+00  2.0415034413249196e-12 2.8098884272193536e-12 0.0000000000000000e+00  1.6075525567912434e-13 2.2126062753747166e-13 0.0000000000000000e+00  -3.1368155133236382e-12 -4.3174561603922370e-12 0.0000000000000000e+00  2.9768940614130554e-12 4.0973431652870063e-12 0.0000000000000000e+00  -4.3191809205492892e-12 -5.9448425302881897e-12 0.0000000000000000e+00  1.6046360026810295e-12 2.2085919830273427e-12 0.0000000000000000e+00  3.3264548573560247e-13 4.5784723249284324e-13 0.0000000000000000e+00  3.0088987571194651e-12 4.1413938498274914e-12 0.0000000000000000e+00  -1.1187570859799782e-12 -1.5398370265418842e-12 0.0000000000000000e+00  -3.1020772077937830e-12 -4.2696429847131409e-12 0.0000000000000000e+00  -2.1071452586812125e-12 -2.9002366378554274e-12 0.0000000000000000e+00  -3.2925538737540717e-12 -4.5318116240125135e-12 0.0000000000000000e+00  -3.0149042551485782e-12 -4.1496597087381879e-12 0.0000000000000000e+00  -3.4281824352774104e-12 -4.7184883239927524e-12 0.0000000000000000e+00  -2.7653823206337463e-12 -3.8062222293109749e-12 0.0000000000000000e+00  4.9866390781868295e-13 6.8635198711315153e-13 0.0000000000000000e+00  1.2720608801326457e-13 1.7508415971532537e-13 0.0000000000000000e+00  -3.5580763970424283e-12 -4.8972720245444999e-12 0.0000000000000000e+00  2.5353932068908156e-12 3.4896693712500119e-12 0.0000000000000000e+00  4.1718791062663739e-12 5.7420989762565796e-12 0.0000000000000000e+00  1.3820807596677511e-12 1.9022709702377923e-12 0.0000000000000000e+00  -8.7824163942913538e-13 -1.2087959143152474e-12 0.0000000000000000e+00  -3.0263734546652204e-12 -4.1654457075951721e-12 0.0000000000000000e+00  1.4560008060003202e-12 2.0040131855703337e-12 0.0000000000000000e+00  3.4357042599910857e-12 4.7288412275376077e-12 0.0000000000000000e+00  4.2666477649718339e-12 5.8725368447260803e-12 0.0000000000000000e+00  4.3285744060429814e-12 5.9577715538919163e-12 0.0000000000000000e+00  -4.1369789654059164e-12 -5.6940630533543473e-12 0.0000000000000000e+00  2.4401214513967429e-12 3.3585390494564173e-12 0.0000000000000000e+00  1.3849867592998821e-12 1.9062707355923536e-12 0.0000000000000000e+00  -2.3245076984777535e-12 -3.1994103701808965e-12 0.0000000000000000e+00  -1.0273271605080439e-12 -1.4139945301322848e-12 0.0000000000000000e+00  -1.9599102894261547e-12 -2.6975850881116334e-12 0.0000000000000000e+00  4.0488209281396499e-12 5.5727239247168316e-12 0.0000000000000000e+00  -3.4391379835273563e-12 -4.7335673425328278e-12 0.0000000000000000e+00  -7.6464730998332161e-13 -1.0524467329979800e-12 0.0000000000000000e+00  3.4514620957687057e-12 4.7505300278076784e-12 0.0000000000000000e+00  2.2057803745243379e-13 3.0359962280254873e-13 0.0000000000000000e+00  -4.1359692536693289e-12 -5.6926733043752205e-12 0.0000000000000000e+00  -2.8286740075369363e-12 -3.8933357628806493e-12 0.0000000000000000e+00  3.0293322266877656e-12 4.1695181079137984e-12 0.0000000000000000e+00  -2.0068636442571704e-12 -2.7622108368065123e-12 0.0000000000000000e+00  -2.0444375862319377e-12 -2.8139269312214162e-12 0.0000000000000000e+00  2.3718937869101633e-12 3.2646317255811148e-12 0.0000000000000000e+00  3.7992391849156824e-12 5.2292041256636779e-12 0.0000000000000000e+00  5.5978840855553773e-13 7.7048264482518695e-13 0.0000000000000000e+00  5.2561652668279288e-13 7.2344908442706329e-13 0.0000000000000000e+00  8.8882426278682264e-13 1.2233616457759241e-12 0.0000000000000000e+00  3.6105110441577778e-13 4.9694421248403538e-13 0.0000000000000000e+00  -1.7435118252945098e-12 -2.3997381544631020e-12 0.0000000000000000e+00  -4.4019561739933282e-12 -6.0587728925909866e-12 0.0000000000000000e+00  -4.1436599500323288e-12 -5.7032586398050871e-12 0.0000000000000000e+00  3.9500873038344186e-12 5.4368287492805161e-12 0.0000000000000000e+00  1.1571472409264820e-12 1.5926765417343400e-12 0.0000000000000000e+00  2.3430237711943448e-12 3.2248955579061426e-12 0.0000000000000000e+00  -6.4562797880294882e-13 -8.8863067737474093e-13 0.0000000000000000e+00  2.1203031746911029e-12 2.9183469555625197e-12 0.0000000000000000e+00  6.8254754313658262e-13 9.3944609823522770e-13 0.0000000000000000e+00  -3.6901727265673895e-12 -5.0790870242632622e-12 0.0000000000000000e+00  -7.9520252403302720e-13 -1.0945023771921223e-12 0.0000000000000000e+00  -3.9063178832250474e-13 -5.3765853100842783e-13 0.0000000000000000e+00  2.1052595252637523e-12 2.8976411484728069e-12 0.0000000000000000e+00  -4.3779201092394322e-12 -6.0256900876244483e-12 0.0000000000000000e+00  4.5736071692132628e-17 6.2950302190425922e-17 0.0000000000000000e+00  -2.2565509322619659e-12 -3.1058759057877978e-12 0.0000000000000000e+00  1.8433290426829084e-12 2.5371247678282378e-12 0.0000000000000000e+00  9.5237277532336047e-13 1.3108286695040523e-12 0.0000000000000000e+00  -7.3884864738959803e-14 -1.0169379202316422e-13 0.0000000000000000e+00  -4.7934921292715934e-13 -6.5976759026504097e-13 0.0000000000000000e+00  -1.0580336554102697e-12 -1.4562583945567493e-12 0.0000000000000000e+00  1.9178260671506710e-12 2.6396611254345662e-12 0.0000000000000000e+00  8.3176323611184581e-14 1.1448238802969611e-13 0.0000000000000000e+00  -8.5893398085633345e-13 -1.1822212021290119e-12 0.0000000000000000e+00  1.9106912399666979e-12 2.6298408782928595e-12 0.0000000000000000e+00  -1.6610813514678429e-12 -2.2862823405922038e-12 0.0000000000000000e+00  -1.8142233102899077e-12 -2.4970641639804383e-12 0.0000000000000000e+00  1.0790933573448161e-12 1.4852445875499712e-12 0.0000000000000000e+00  -1.7995631402328990e-12 -2.4768861709629383e-12 0.0000000000000000e+00  2.7679822404014760e-13 3.8098007118739541e-13 0.0000000000000000e+00  6.4354874662063732e-13 8.8576885979054559e-13 0.0000000000000000e+00  -2.0776912285114791e-12 -2.8596966432447937e-12 0.0000000000000000e+00  1.4547026051961359e-12 2.0022263654543131e-12 0.0000000000000000e+00  7.8234013340945521e-13 1.0767988152837995e-12 0.0000000000000000e+00  2.4562944299789531e-12 3.3807992447771395e-12 0.0000000000000000e+00  2.4422429014913856e-12 3.3614589750118656e-12 0.0000000000000000e+00  2.9586559232859767e-12 4.0722405217058400e-12 0.0000000000000000e+00  -5.0560875439716530e-13 -6.9591074838422085e-13 0.0000000000000000e+00  9.4782027711031268e-13 1.3045626932706359e-12 0.0000000000000000e+00  1.1092580557054582e-12 1.5267627330100261e-12 0.0000000000000000e+00  -2.3167325662900905e-12 -3.1887088188085230e-12 0.0000000000000000e+00  1.6594665163211746e-12 2.2840597106917877e-12 0.0000000000000000e+00  -6.4600090369520784e-13 -8.8914396445413993e-13 0.0000000000000000e+00  -7.9942783342550795e-13 -1.1003180166483301e-12 0.0000000000000000e+00  -3.6417522992828654e-13 -5.0124420235673530e-13 0.0000000000000000e+00  -2.7591516604055332e-12 -3.7976464612202640e-12 0.0000000000000000e+00  -2.8595106743355161e-12 -3.9357787935498097e-12 0.0000000000000000e+00  -1.4707876297943230e-12 -2.0243655025015925e-12 0.0000000000000000e+00  4.4947652179347478e-13 6.1865135827281735e-13 0.0000000000000000e+00  -1.5123265373688623e-12 -2.0815389038833127e-12 0.0000000000000000e+00  2.0185193062199424e-12 2.7782534792031953e-12 0.0000000000000000e+00  -1.7887659091541947e-12 -2.4620250573150596e-12 0.0000000000000000e+00  2.6811399947361986e-12 3.6902726150071490e-12 0.0000000000000000e+00  1.2666393965574476e-12 1.7433795651782197e-12 0.0000000000000000e+00  1.1519649921878273e-12 1.5855437882630710e-12 0.0000000000000000e+00  </DataArray> 
</PointData> 
</Piece>
</UnstructuredGrid>
</VTKFile>