<?xml version="1.0"?>
<VTKFile type="UnstructuredGrid"  version="0.1"  >
<UnstructuredGrid>
<Piece  NumberOfPoints="201" NumberOfCells="657">
<Points>
<DataArray  type="Float64"  NumberOfComponents="3"  format="ascii">-6.881233358952755 -3.583063560840133 -75.00169206438835  -6.146463682723798 -3.305902281543689 79.53585579369201  3950.363160509476 -4.901882690663246 84.68721297721385  7497.133568703965 -10.95914407928689 77.62184208160119  9960.885052725551 3.144978349763494 -9.861069588769027  11186.47135557382 -3.119172145765019 -37.73321186473484  11564.0851038585 -18.88193153633922 8.93927241755604  11188.09104688887 -16.40635262901202 47.43433291871801  9955.908270001812 -2.8117559394091 15.62914541830582  7500.313052464896 -8.455739541621867 -70.62575616525862  3952.133022200861 -3.146465747399576 -84.78980869526936  5016.161364225086 -3710.801252433809 70.10646921719405  4975.717138143536 2877.317434574029 -90.1511905430379  11092.29720533133 -3003.347764159486 -26.01605911934757  8564.193180716858 -3509.44248737057 -17.98721762055754  10359.68935749872 3137.369377653407 47.42598618813597  10341.67721631687 3094.822300820594 -46.59918259947085  5581.214049530789 3319.343508880934 74.02715887290873  1931.328609573188 -3317.272794804356 -84.10344618193295  8505.964027634755 -3238.813335812705 25.44031439373066  5959.217574834401 -6399.118486679117 41.7555312522336  8553.783463328351 -6048.533535933242 -14.45908162149968  5813.760453753306 -8564.202565050246 -56.29825415373537  7937.352543336869 -7737.776835240966 -50.7202406947829  4978.956451711181 -9808.829412570376 -52.65233885730129  7021.39669428618 -8697.72507059419 15.30282081646326  3684.332883161896 -10430.25894995122 14.50372000251809  5454.898199878492 -9234.230001225655 68.6231906567395  1990.870432447753 -10422.45255448736 56.73648354645235  3662.774092641149 -8908.928242387743 17.79816569045437  -132.4854594344285 -9570.070565413314 13.34192296262455  8387.25837471169 -7275.394395725945 41.9606177509435  8568.390935981888 3241.212156644188 -26.5067836266789  8413.41301711417 6082.405470456108 32.08208679178782  9743.708452154913 5574.781305048517 36.86208534935456  1399.46273819678 -7322.361620073941 -75.43162179184822  5163.454146694334 -6396.396380128823 -49.43136880917808  5960.684132537328 6055.9840794227 -39.05114390449586  5547.041561264157 8509.664226463179 24.04774382076161  11137.29751860009 -2942.852140776973 32.28708596930623  9814.130519943872 -6040.466631328023 14.70429340652337  10445.95584495012 -3132.767837223173 -28.38614884677048  1928.098312256763 3331.111895253736 83.5494581021764  8494.052191388961 3188.924561042011 23.9685484828849  8314.437310278727 6046.921878998193 -34.81803307860918  2475.618426344882 -10191.77905590208 -61.07736731819688  -1753.150646475216 -10564.78499709243 64.27707065114237  2589.444352894364 -6644.978900348304 82.91987492407344  9703.68214427237 5688.914133610471 -44.90576485479266  7277.364022975094 8205.950471886901 -56.81258520022102  5399.99777290268 8344.172805162698 -16.61515138791751  4120.33094861786 10037.91468257795 -41.60778165761604  1886.030458156041 9737.200551483793 -22.56721510284919  517.1035599041325 10820.02896729429 -41.75297554740385  -1919.762758322657 9977.06096712426 -21.48011568953348  -3034.362256297838 10512.16244506287 -41.33045244234715  -5478.20642081138 9192.644744620475 -46.2490271487562  -609.0502435962977 11079.15875157848 4.798851157383535  -3919.451333727689 -9105.793503538944 14.12732969558505  -5175.042648294285 -9624.873947573524 50.07953598529654  -6272.759821378893 9298.548476284155 -28.57208686197765  -8345.276494206038 7396.465180952149 -51.97048330013497  -8734.064173432593 7229.08745305794 0.5743631427736844  -10383.46696866064 4776.537962596478 -31.36722845232792  -10490.16539354465 4530.051851117796 18.65069471599634  -9496.546702113692 4696.298810602257 -37.15062621694761  -8608.619583797061 6856.088762410267 48.45303386460307  -11037.77800557466 2032.476352741757 -41.8762121621392  -9977.70483510948 3853.045471008932 34.60272841223841  -9856.69854278887 1388.045751202082 -12.68490252251439  -10714.70206953532 -1513.757775748707 -41.38392281214198  -7672.549660865341 6005.567104206901 -3.19589186641781  -1775.518236043188 -5095.475580364408 -82.1967232643342  -7282.481469014563 -7665.678636187852 23.82804573203541  -9008.236611254028 -2110.664123899592 16.70057421117451  -9390.448461319607 -4780.267197861188 -31.26514063326198  -11248.13216702658 1286.918438176699 38.5879287732019  -4167.624180543774 7993.909012894923 16.01065288820786  -8616.734925499928 2621.063222799948 -19.82389367363783  2714.610121564448 8145.470491879631 -29.05706173816537  -10738.83173516802 -3758.542031989381 -44.87727734213524  -7428.621293682095 861.8083241807292 65.21951704503579  -5776.45417830082 4750.243090754605 -69.59892585439718  -7017.409613978516 -5356.408873146982 24.57826710540849  -7090.072740320706 -7652.783211280627 -30.86617293521104  -5956.274226118318 8633.979747022304 33.82389111859257  -2913.896494015265 -10635.03140180391 19.24732688929993  -6104.351799843472 789.3255982025519 -85.78016285398303  -8905.102391612738 -1123.243425161333 -37.70871722208619  -4224.385420634984 -7949.106811036268 23.83741292858855  -4054.945382577009 -9675.774923758887 -66.16065049129594  -3748.996995480057 -5177.378981120115 72.8285370396361  5927.15121069788 9535.559598166223 -7.180062230532744  -7996.030133880198 -7959.276723611373 15.95216728948832  -9716.266344780572 -5412.725471772508 37.14437138786764  2164.370830875539 10062.26939790246 31.42767434661278  -812.4188337885853 9306.679031507199 -6.468372917881027  -285.1562936106479 7213.646948559382 -57.16970155521267  -3470.156157099507 3076.767667698711 -83.87991381157616  -5679.502403359233 -6550.201931826989 -28.33198766347238  2959.551971197213 7997.65118126873 27.44843989349516  -6570.818241448345 -9010.02502157886 -36.74284240524025  -935.1243697109951 6236.196629153464 78.47825196302443  -2103.007606814189 2660.85202027737 86.31230454686818  -1334.064025926662 10649.07388688066 41.88769654699971  -2703.58958413952 -1894.959814048585 -77.92241443321512  -884.4589121958907 -9721.577596146519 -11.00202726308345  -5830.196955552309 -3034.650038179533 -74.09174271673368  -8709.398328096881 -4720.059207967137 -4.792425290834871  -10485.82173262608 -2195.674615646847 53.71332267954719  -11054.99381422322 -2742.419568710283 34.02688955089033  -11522.08803883535 -372.0008184790124 -20.31563899271273  -4912.564372564961 5273.851125581269 67.38595106997104  -7292.388335759018 5695.246372427062 12.78473498274332  -1042.382608194029 -10682.04991042642 -52.53147194405904  -429.0310626166307 8852.684303561011 17.13673494123753  4689.944646128937 9863.374992343355 37.85256509940868  10387.7382323627 -2970.944931001186 30.5822383820834  629.7231293765601 -3474.116165062107 81.79175721453163  1846.195217808406 -10827.87506164194 -40.43719142200463  -3825.37995503121 7734.762816713332 -25.53171579398474  11090.90193998869 2790.57432159433 -30.63788151576222  7468.910031829834 8108.440971054026 54.35695773221511  8689.192673366351 7249.533559660047 -5.513813348488005  -8996.087219477278 -6672.451684648815 -33.92964163814945  -3844.533681640066 10454.29759666804 24.72677101349655  -6466.62268430005 9025.322321818163 35.13574191156589  -704.1967678563306 -7485.282476007527 62.20817174713369  -2984.841417401342 -1367.72680695798 81.43851479953491  -6293.891855695317 -2194.010890545943 77.58006596298139  2677.500523978268 10826.62058124716 -19.54064295886228  283.9928597175837 -10998.54369309016 28.19780131389821  6744.710340540159 -7436.424771466258 14.80809781419086  11096.20794118088 2836.095503689479 26.96466049545126  5580.641308723414 -3284.217628711492 -63.4179055762682  -9881.791437500498 -5910.18390559169 -2.550231072359718  -2277.315185510291 -8016.513173220099 -46.40244294056447  6149.198115791007 5884.757825595767 39.21322774404899  -10393.25488448188 937.7837931586894 28.06766025029606  2789.146113241053 -8921.53898182563 -4.902226469606006  3128.297023452981 5935.435444639501 -73.15592170765683  1656.035621427085 10821.25958997705 29.53759472655167  -7544.266973730268 7278.831893205581 -35.85413252596268  9871.069223867438 -5439.043443450157 -22.10781644071349  -200.9521495784218 3180.822857552295 -79.4346115475488  9129.588004563871 -5445.357303773124 23.47701919837735  -11230.02475052209 2646.84561337197 -1.348694189242215  -5991.96241881155 -9556.461834444326 -5.446483928817694  -3662.335902266266 -10334.09540454112 -56.74705863868915  10397.80198700393 4884.692735722399 -10.73950089580013  -2850.716326723808 6060.589068460318 -64.9159992338038  3545.752010799019 5489.722500683849 67.50042803584978  -4314.897343550577 911.4731843145012 81.60519235580847  -4332.235804323096 9923.553587951816 50.85114070648282  10040.55727654149 -5072.670120226614 35.26113122350644  -843.9165635123709 -11015.51804285254 -21.38362445136659  -8110.637197107884 3166.348630441324 38.10311343483193  -5595.386910316123 2713.943943452598 76.27285683135835  -3410.960425864851 9384.660039858885 28.8283846598398  -8190.999487066664 -7888.130460140055 -14.69721427003415  -7.324410809263 0.9279638797023735 0.7628514439990055  -4103.721760300145 -4851.266280421418 -1.84753813782402  6164.836797993771 1886.741613003753 -0.8598524082141876  -2471.134321014936 5094.437917391248 -16.70853066198454  4618.201065213714 -3610.558366480461 -12.654962282943  -3027.059233191005 528.0753160061557 35.06837511956675  -6348.50903130312 939.4734404042414 -3.670850277185773  1220.78864763668 5764.181132964786 14.46551402636437  4313.345626566242 -2845.115699702014 27.29070653735552  -3352.128452160156 -530.3991037859428 -31.70621966067591  3210.142474033252 4274.077185121457 -30.25995111261344  -1178.72443408198 -4881.411355202602 32.07830772126684  1044.048163237791 -7026.449751883372 -1.731254810513043  2551.869382166907 1868.663883109198 36.31078933603504  -1
[...]
<PointData  Vectors="Tidal Force"> 
<DataArray  type="Float64"  Name="Tidal Force"  NumberOfComponents="3" format="ascii">-5.1775487973263534e-14 1.4342857647596249e-14 0.0000000000000000e+00  -4.5961128361292766e-14 1.2732162403748539e-14 0.0000000000000000e+00  3.4732077142107402e-11 -9.6214880391242771e-12 0.0000000000000000e+00  6.5919748352184140e-11 -1.8261103927576341e-11 0.0000000000000000e+00  8.7539590873640140e-11 -2.4250237700855698e-11 0.0000000000000000e+00  9.8326635398037709e-11 -2.7238467268708570e-11 0.0000000000000000e+00  1.0168392047112756e-10 -2.8168503155779170e-11 0.0000000000000000e+00  9.8373242566355873e-11 -2.7251378397250520e-11 0.0000000000000000e+00  8.7510357565591060e-11 -2.4242139483101905e-11 0.0000000000000000e+00  6.5941621419295842e-11 -1.8267163209684145e-11 0.0000000000000000e+00  3.4743382841352900e-11 -9.6246199465428724e-12 0.0000000000000000e+00  5.3122458210514497e-11 -1.4715995654106511e-11 0.0000000000000000e+00  3.6726494780435787e-11 -1.0173982074355215e-11 0.0000000000000000e+00  1.0480376278720634e-10 -2.9032762595411526e-11 0.0000000000000000e+00  8.3816231873552167e-11 -2.3218791929900623e-11 0.0000000000000000e+00  8.3413656688989987e-11 -2.3107270459207539e-11 0.0000000000000000e+00  8.3358927875499545e-11 -2.3092109470642443e-11 0.0000000000000000e+00  4.0972038648532188e-11 -1.1350083618162519e-11 0.0000000000000000e+00  2.5051399116732096e-11 -6.9397443745957746e-12 0.0000000000000000e+00  8.2645538253108559e-11 -2.2894486112529227e-11 0.0000000000000000e+00  6.7956481607688542e-11 -1.8825320244859725e-11 0.0000000000000000e+00  8.9906819712802764e-11 -2.4906007981126682e-11 0.0000000000000000e+00  7.1949493071209464e-11 -1.9931465203572139e-11 0.0000000000000000e+00  8.8601818999893765e-11 -2.4544496381951970e-11 0.0000000000000000e+00  6.7642713844342537e-11 -1.8738400226522085e-11 0.0000000000000000e+00  8.2888633859742400e-11 -2.2961828513676775e-11 0.0000000000000000e+00  5.7777129954164330e-11 -1.6005433896580111e-11 0.0000000000000000e+00  7.0426799965685611e-11 -1.9509648407470035e-11 0.0000000000000000e+00  4.2874118718737133e-11 -1.1876998278925681e-11 0.0000000000000000e+00  5.3883585571148187e-11 -1.4926843331503520e-11 0.0000000000000000e+00  2.2136397612697276e-11 -6.1322299840700802e-12 0.0000000000000000e+00  9.1430297295417111e-11 -2.5328042093253750e-11 0.0000000000000000e+00  6.7416922879411012e-11 -1.8675851561219337e-11 0.0000000000000000e+00  5.9137182500542231e-11 -1.6382195967389032e-11 0.0000000000000000e+00  7.2065203442058806e-11 -1.9963519317254268e-11 0.0000000000000000e+00  3.0128188753639892e-11 -8.3461178134431668e-12 0.0000000000000000e+00  6.0955808052030900e-11 -1.6885992038084739e-11 0.0000000000000000e+00  3.7644194539191837e-11 -1.0428203473675841e-11 0.0000000000000000e+00  2.8034534763362749e-11 -7.7661333010543370e-12 0.0000000000000000e+00  1.0505200364063964e-10 -2.9101530334016920e-11 0.0000000000000000e+00  1.0096448576056859e-10 -2.7969205185944199e-11 0.0000000000000000e+00  9.9438124071003850e-11 -2.7546372117842991e-11 0.0000000000000000e+00  8.8357731260468995e-12 -2.4476879139949323e-12 0.0000000000000000e+00  6.6890838698805665e-11 -1.8530115599890080e-11 0.0000000000000000e+00  5.8353674469973559e-11 -1.6165148391632759e-11 0.0000000000000000e+00  4.6572997419030265e-11 -1.2901662511572340e-11 0.0000000000000000e+00  1.0314097130246070e-11 -2.8572135713910047e-12 0.0000000000000000e+00  3.8937797261432925e-11 -1.0786557598840780e-11 0.0000000000000000e+00  7.1435545212651328e-11 -1.9789091248982029e-11 0.0000000000000000e+00  4.3981961880517995e-11 -1.2183893247708807e-11 0.0000000000000000e+00  2.7145076179864843e-11 -7.5197352786323958e-12 0.0000000000000000e+00  1.1774078214240811e-11 -3.2616578687916056e-12 0.0000000000000000e+00  -7.1312197726597375e-12 1.9754921499880399e-12 0.0000000000000000e+00  -2.1799326265192192e-11 6.0388544014614637e-12 0.0000000000000000e+00  -4.1164766211384540e-11 1.1403473052177835e-11 0.0000000000000000e+00  -5.2263940326380281e-11 1.4478168831375039e-11 0.0000000000000000e+00  -7.0530420160198956e-11 1.9538353297708617e-11 0.0000000000000000e+00  -3.2328093243969119e-11 8.9555358639189719e-12 0.0000000000000000e+00  -1.2278081672034023e-11 3.4012770231829117e-12 0.0000000000000000e+00  -2.2049735967052188e-11 6.1082229549593958e-12 0.0000000000000000e+00  -7.7771674381229673e-11 2.1544327216021688e-11 0.0000000000000000e+00  -9.1356118064653267e-11 2.5307492945599092e-11 0.0000000000000000e+00  -9.4365718276660640e-11 2.6141213092076281e-11 0.0000000000000000e+00  -1.0289109227627959e-10 2.8502914168311358e-11 0.0000000000000000e+00  -1.0322876351803036e-10 2.8596455933762601e-11 0.0000000000000000e+00  -9.4900500923828338e-11 2.6289358704623515e-11 0.0000000000000000e+00  -9.2354988129420892e-11 2.5584200161855657e-11 0.0000000000000000e+00  -1.0196077166550865e-10 2.8245196537647939e-11 0.0000000000000000e+00  -9.7076363498619164e-11 2.6892116658098980e-11 0.0000000000000000e+00  -9.0011109020128569e-11 2.4934898229151242e-11 0.0000000000000000e+00  -9.0487009739797267e-11 2.5066732356530636e-11 0.0000000000000000e+00  -8.2056949706674552e-11 2.2731435177328624e-11 0.0000000000000000e+00  -3.1989591379416650e-12 8.8617639991471872e-13 0.0000000000000000e+00  -4.5342429738296742e-11 1.2560770368177999e-11 0.0000000000000000e+00  -7.4035394582003982e-11 2.0509302122302505e-11 0.0000000000000000e+00  -7.0894832841593651e-11 1.9639302982951980e-11 0.0000000000000000e+00  -1.0199436574326671e-10 2.8254502776834620e-11 0.0000000000000000e+00  -5.6092926859419065e-11 1.5538875565926685e-11 0.0000000000000000e+00  -8.2115070229938653e-11 2.2747535738119302e-11 0.0000000000000000e+00  4.0267209055569955e-12 -1.1154831561380538e-12 0.0000000000000000e+00  -8.5233574320392443e-11 2.3611424462179675e-11 0.0000000000000000e+00  -6.7389212379831731e-11 1.8668175192219887e-11 0.0000000000000000e+00  -6.2335587889949410e-11 1.7268218967756718e-11 0.0000000000000000e+00  -4.8635180034264841e-11 1.3472928816371453e-11 0.0000000000000000e+00  -4.3682706943346326e-11 1.2100993575832992e-11 0.0000000000000000e+00  -7.3372003837704832e-11 2.0325529464956833e-11 0.0000000000000000e+00  2.8321930252754450e-13 -7.8457476659645237e-14 0.0000000000000000e+00  -5.5573626098361024e-11 1.5395018749048586e-11 0.0000000000000000e+00  -7.5533053639198514e-11 2.0924183980549147e-11 0.0000000000000000e+00  -1.7774381969516633e-11 4.9238634022034750e-12 0.0000000000000000e+00  -1.2081154849461917e-11 3.3467243092692609e-12 0.0000000000000000e+00  -2.0344651937986154e-11 5.6358801830532642e-12 0.0000000000000000e+00  2.8877524615676101e-11 -7.9996585448210850e-12 0.0000000000000000e+00  -5.0899042480325748e-11 1.4100064514529583e-11 0.0000000000000000e+00  -7.2218591786107933e-11 2.0006010991782431e-11 0.0000000000000000e+00  -5.4763422773859623e-12 1.5170576036795763e-12 0.0000000000000000e+00  -2.9799977382686382e-11 8.2551966235870797e-12 0.0000000000000000e+00  -2.0069785009186920e-11 5.5597364828946993e-12 0.0000000000000000e+00  -3.7990771903205389e-11 1.0524212415175194e-11 0.0000000000000000e+00  -3.3969565410137513e-11 9.4102568628596755e-12 0.0000000000000000e+00  6.5394240992968880e-12 -1.8115527757441914e-12 0.0000000000000000e+00  -3.5814378652735670e-11 9.9213074538005023e-12 0.0000000000000000e+00  -2.3402566709626321e-11 6.4829844400090868e-12 0.0000000000000000e+00  -2.4962107165548259e-11 6.9150086976366849e-12 0.0000000000000000e+00  -3.7653169880021428e-11 1.0430689824667336e-11 0.0000000000000000e+00  -1.9148370520678772e-11 5.3044860282793893e-12 0.0000000000000000e+00  1.5896090013438440e-11 -4.4035385303149420e-12 0.0000000000000000e+00  -4.3853561439086976e-11 1.2148323727740503e-11 0.0000000000000000e+00  -6.5055600691282786e-11 1.8021717542783370e-11 0.0000000000000000e+00  -8.6815057061992896e-11 2.4049527176858455e-11 0.0000000000000000e+00  -9.0486363699840374e-11 2.5066553390392418e-11 0.0000000000000000e+00  -1.0036311485213048e-10 2.7802613277866220e-11 0.0000000000000000e+00  -5.6017617058730681e-11 1.5518013227530182e-11 0.0000000000000000e+00  -7.7960133465795459e-11 2.1596534195195287e-11 0.0000000000000000e+00  1.6846599372862040e-11 -4.6668488527972819e-12 0.0000000000000000e+00  -2.5324950892761961e-11 7.0155237508301336e-12 0.0000000000000000e+00  1.7205474568912016e-11 -4.7662645425703273e-12 0.0000000000000000e+00  9.8532445270016985e-11 -2.7295480767022552e-11 0.0000000000000000e+00  1.3993340830421003e-11 -3.8764385117657786e-12 0.0000000000000000e+00  4.2589653482007027e-11 -1.1798195653285214e-11 0.0000000000000000e+00  -5.2453968365127074e-11 1.4530810442598564e-11 0.0000000000000000e+00  9.0684697966604265e-11 -2.5121495994821452e-11 0.0000000000000000e+00  4.5902938619461842e-11 -1.2716042668014473e-11 0.0000000000000000e+00  5.8719356158426434e-11 -1.6266449617504752e-11 0.0000000000000000e+00  -6.2821756030361459e-11 1.7402897378403989e-11 0.0000000000000000e+00  -5.9243709874861535e-11 1.6411706205249522e-11 0.0000000000000000e+00  -7.8810345121912563e-11 2.1832060024721259e-11 0.0000000000000000e+00  1.2035585959645877e-11 -3.3341008048779941e-12 0.0000000000000000e+00  -2.2904008445755431e-11 6.3448737144969395e-12 0.0000000000000000e+00  -4.9975805236224966e-11 1.3844309119738617e-11 0.0000000000000000e+00  -2.8273938713100082e-12 7.8324530385549876e-13 0.0000000000000000e+00  2.9274839189160769e-11 -8.1097227198173425e-12 0.0000000000000000e+00  7.7385873162690923e-11 -2.1437452473274161e-11 0.0000000000000000e+00  9.0620509282316558e-11 -2.5103714430661189e-11 0.0000000000000000e+00  5.7045097464446094e-11 -1.5802646087050128e-11 0.0000000000000000e+00  -7.2462241141276241e-11 2.0073506792477015e-11 0.0000000000000000e+00  -4.9726618395711928e-13 1.3775279323573722e-13 0.0000000000000000e+00  3.9717959727939138e-11 -1.1002678385667066e-11 0.0000000000000000e+00  -9.3630709388569598e-11 2.5937600759980990e-11 0.0000000000000000e+00  4.6235879925813984e-11 -1.2808274145668135e-11 0.0000000000000000e+00  1.3043569802376700e-11 -3.6133327220128156e-12 0.0000000000000000e+00  -1.1792098114466799e-11 3.2666497457179754e-12 0.0000000000000000e+00  -8.4029563496458041e-11 2.3277889105395126e-11 0.0000000000000000e+00  1.0000061721775082e-10 -2.7702194099389678e-11 0.0000000000000000e+00  -9.5107464438587761e-12 2.6346691785327132e-12 0.0000000000000000e+00  9.3499055674498546e-11 -2.5901130017673879e-11 0.0000000000000000e+00  -1.0514630240148934e-10 2.9127652998547105e-11 0.0000000000000000e+00  -2.9396294701055276e-11 8.1433683537999382e-12 0.0000000000000000e+00  -7.0276226510020047e-12 1.9467936513972617e-12 0.0000000000000000e+00  7.9494293780554023e-11 -2.2021527640250533e-11 0.0000000000000000e+00  -3.9811335574564724e-11 1.1028545384285527e-11 0.0000000000000000e+00  1.7797800917953735e-11 -4.9303509247134151e-12 0.0000000000000000e+00  -4.0143307820981533e-11 1.1120508412731872e-11 0.0000000000000000e+00  -6.2237966637892878e-11 1.7241175905944337e-11 0.0000000000000000e+00  1.0059822725072564e-10 -2.7867744168877374e-11 0.0000000000000000e+00  1.9402841045124904e-11 -5.3749795117889008e-12 0.0000000000000000e+00  -7.8994558801047377e-11 2.1883090940700941e-11 0.0000000000000000e+00  -5.5786265535598811e-11 1.5453924175109301e-11 0.0000000000000000e+00  -5.2828671540120740e-11 1.4634610802757644e-11 0.0000000000000000e+00  -5.2785871392977076e-11 1.4622754296101547e-11 0.0000000000000000e+00  -6.6634406981633284e-14 1.8459078826318163e-14 0.0000000000000000e+00  -2.4256377731217507e-11 6.7195073665907733e-12 0.0000000000000000e+00  4.9589634851996569e-11 -1.3737332110626402e-11 0.0000000000000000e+00  -3.4122792244197433e-11 9.4527037958532972e-12 0.0000000000000000e+00  4.9380687071655274e-11 -1.3679449348212574e-11 0.0000000000000000e+00  -2.7890860091522506e-11 7.7263325102470372e-12 0.0000000000000000e+00  -5.8085106430753951e-11 1.6090749611321691e-11 0.0000000000000000e+00  -3.3047712537372914e-12 9.1548849669362996e-13 0.0000000000000000e+00  4.4837618730557424e-11 -1.2420927506113934e-11 0.0000000000000000e+00  -2.8170826121410019e-11 7.8038887645678646e-12 0.0000000000000000e+00  1.7807929901563480e-11 -4.9331568580945626e-12 0.0000000000000000e+00  1.5251157553621745e-12 -4.2248791912037058e-13 0.0000000000000000e+00  2.6283974135903091e-11 -7.2811925913481123e-12 0.0000000000000000e+00  1.7878902005398484e-11 -4.9528175667059740e-12 0.0000000000000000e+00  4.5107663432535623e-12 -1.2495735351883746e-12 0.0000000000000000e+00  2.1247931161990297e-11 -5.8861068025032376e-12 0.0000000000000000e+00  -5.1247742547054767e-11 1.4196661487625890e-11 0.0000000000000000e+00  -4.9758828102133793e-11 1.3784202063892812e-11 0.0000000000000000e+00  5.6148809315689673e-11 -1.5554356136881442e-11 0.0000000000000000e+00  -1.5750500294583138e-11 4.3632072327408175e-12 0.0000000000000000e+00  -6.6559881658035404e-12 1.8438433803946622e-12 0.0000000000000000e+00  3.7340394249466369e-11 -1.0344044647184794e-11 0.0000000000000000e+00  3.2769938428767691e-11 -9.0779359191558147e-12 0.0000000000000000e+00  -6.2352454147395240e-11 1.7272891262293425e-11 0.0000000000000000e+00  7.3597748656925157e-11 -2.0388065346963998e-11 0.0000000000000000e+00  -2.5589435036539821e-11 7.0887912094818260e-12 0.0000000000000000e+00  -5.9113925062094343e-11 1.6375753186413633e-11 0.0000000000000000e+00  6.3103637107264019e-11 -1.7480984139491641e-11 0.0000000000000000e+00  6.2196112477828927e-11 -1.7229581456847747e-11 0.0000000000000000e+00  -6.6579424366731179e-11 1.8443847529627333e-11 0.0000000000000000e+00  1.9908251947109902e-11 -5.5149885566955841e-12 0.0000000000000000e+00  -3.3608382928527236e-12 9.3102020083073260e-13 0.0000000000000000e+00  -1.6194375890674778e-12 4.4861697529834455e-13 0.0000000000000000e+00  4.2666047706908751e-11 -1.1819358399127986e-11 0.0000000000000000e+00  -6.9691929514728196e-11 1.9306074425261503e-11 0.0000000000000000e+00  3.8364829038242168e-11 -1.0627833809196061e-11 0.0000000000000000e+00  -3.5146580993016347e-11 9.7363139917263570e-12 0.0000000000000000e+00  -2.9472388978834159e-11 8.1644480082214059e-12 0.0000000000000000e+00  5.3902159219908656e-11 -1.4931988607976927e-11 0.0000000000000000e+00  -9.5870022316268855e-13 2.6557935744887329e-13 0.0000000000000000e+00  1.9196892736012004e-11 -5.3179276635881670e-12 0.0000000000000000e+00  </DataArray> 
</PointData> 
</Piece>
</UnstructuredGrid>
</VTKFile>