<?xml version="1.0"?>
<VTKFile type="UnstructuredGrid"  version="0.1"  >
<UnstructuredGrid>
<Piece  NumberOfPoints="201" NumberOfCells="657">
<Points>
<DataArray  type="Float64"  NumberOfComponents="3"  format="ascii">-6.881233358952755 -3.583063560840133 -75.00169206438835  -6.146463682723798 -3.305902281543689 79.53585579369201  3950.363160509476 -4.901882690663246 84.68721297721385  7497.133568703965 -10.95914407928689 77.62184208160119  9960.885052725551 3.144978349763494 -9.861069588769027  11186.47135557382 -3.119172145765019 -37.73321186473484  11564.0851038585 -18.88193153633922 8.93927241755604  11188.09104688887 -16.40635262901202 47.43433291871801  9955.908270001812 -2.8117559394091 15.62914541830582  7500.313052464896 -8.455739541621867 -70.62575616525862  3952.133022200861 -3.146465747399576 -84.78980869526936  5016.161364225086 -3710.801252433809 70.10646921719405  4975.717138143536 2877.317434574029 -90.1511905430379  11092.29720533133 -3003.347764159486 -26.01605911934757  8564.193180716858 -3509.44248737057 -17.98721762055754  10359.68935749872 3137.369377653407 47.42598618813597  10341.67721631687 3094.822300820594 -46.59918259947085  5581.214049530789 3319.343508880934 74.02715887290873  1931.328609573188 -3317.272794804356 -84.10344618193295  8505.964027634755 -3238.813335812705 25.44031439373066  5959.217574834401 -6399.118486679117 41.7555312522336  8553.783463328351 -6048.533535933242 -14.45908162149968  5813.760453753306 -8564.202565050246 -56.29825415373537  7937.352543336869 -7737.776835240966 -50.7202406947829  4978.956451711181 -9808.829412570376 -52.65233885730129  7021.39669428618 -8697.72507059419 15.30282081646326  3684.332883161896 -10430.25894995122 14.50372000251809  5454.898199878492 -9234.230001225655 68.6231906567395  1990.870432447753 -10422.45255448736 56.73648354645235  3662.774092641149 -8908.928242387743 17.79816569045437  -132.4854594344285 -9570.070565413314 13.34192296262455  8387.25837471169 -7275.394395725945 41.9606177509435  8568.390935981888 3241.212156644188 -26.5067836266789  8413.41301711417 6082.405470456108 32.08208679178782  9743.708452154913 5574.781305048517 36.86208534935456  1399.46273819678 -7322.361620073941 -75.43162179184822  5163.454146694334 -6396.396380128823 -49.43136880917808  5960.684132537328 6055.9840794227 -39.05114390449586  5547.041561264157 8509.664226463179 24.04774382076161  11137.29751860009 -2942.852140776973 32.28708596930623  9814.130519943872 -6040.466631328023 14.70429340652337  10445.95584495012 -3132.767837223173 -28.38614884677048  1928.098312256763 3331.111895253736 83.5494581021764  8494.052191388961 3188.924561042011 23.9685484828849  8314.437310278727 6046.921878998193 -34.81803307860918  2475.618426344882 -10191.77905590208 -61.07736731819688  -1753.150646475216 -10564.78499709243 64.27707065114237  2589.444352894364 -6644.978900348304 82.91987492407344  9703.68214427237 5688.914133610471 -44.90576485479266  7277.364022975094 8205.950471886901 -56.81258520022102  5399.99777290268 8344.172805162698 -16.61515138791751  4120.33094861786 10037.91468257795 -41.60778165761604  1886.030458156041 9737.200551483793 -22.56721510284919  517.1035599041325 10820.02896729429 -41.75297554740385  -1919.762758322657 9977.06096712426 -21.48011568953348  -3034.362256297838 10512.16244506287 -41.33045244234715  -5478.20642081138 9192.644744620475 -46.2490271487562  -609.0502435962977 11079.15875157848 4.798851157383535  -3919.451333727689 -9105.793503538944 14.12732969558505  -5175.042648294285 -9624.873947573524 50.07953598529654  -6272.759821378893 9298.548476284155 -28.57208686197765  -8345.276494206038 7396.465180952149 -51.97048330013497  -8734.064173432593 7229.08745305794 0.5743631427736844  -10383.46696866064 4776.537962596478 -31.36722845232792  -10490.16539354465 4530.051851117796 18.65069471599634  -9496.546702113692 4696.298810602257 -37.15062621694761  -8608.619583797061 6856.088762410267 48.45303386460307  -11037.77800557466 2032.476352741757 -41.8762121621392  -9977.70483510948 3853.045471008932 34.60272841223841  -9856.69854278887 1388.045751202082 -12.68490252251439  -10714.70206953532 -1513.757775748707 -41.38392281214198  -7672.549660865341 6005.567104206901 -3.19589186641781  -1775.518236043188 -5095.475580364408 -82.1967232643342  -7282.481469014563 -7665.678636187852 23.82804573203541  -9008.236611254028 -2110.664123899592 16.70057421117451  -9390.448461319607 -4780.267197861188 -31.26514063326198  -11248.13216702658 1286.918438176699 38.5879287732019  -4167.624180543774 7993.909012894923 16.01065288820786  -8616.734925499928 2621.063222799948 -19.82389367363783  2714.610121564448 8145.470491879631 -29.05706173816537  -10738.83173516802 -3758.542031989381 -44.87727734213524  -7428.621293682095 861.8083241807292 65.21951704503579  -5776.45417830082 4750.243090754605 -69.59892585439718  -7017.409613978516 -5356.408873146982 24.57826710540849  -7090.072740320706 -7652.783211280627 -30.86617293521104  -5956.274226118318 8633.979747022304 33.82389111859257  -2913.896494015265 -10635.03140180391 19.24732688929993  -6104.351799843472 789.3255982025519 -85.78016285398303  -8905.102391612738 -1123.243425161333 -37.70871722208619  -4224.385420634984 -7949.106811036268 23.83741292858855  -4054.945382577009 -9675.774923758887 -66.16065049129594  -3748.996995480057 -5177.378981120115 72.8285370396361  5927.15121069788 9535.559598166223 -7.180062230532744  -7996.030133880198 -7959.276723611373 15.95216728948832  -9716.266344780572 -5412.725471772508 37.14437138786764  2164.370830875539 10062.26939790246 31.42767434661278  -812.4188337885853 9306.679031507199 -6.468372917881027  -285.1562936106479 7213.646948559382 -57.16970155521267  -3470.156157099507 3076.767667698711 -83.87991381157616  -5679.502403359233 -6550.201931826989 -28.33198766347238  2959.551971197213 7997.65118126873 27.44843989349516  -6570.818241448345 -9010.02502157886 -36.74284240524025  -935.1243697109951 6236.196629153464 78.47825196302443  -2103.007606814189 2660.85202027737 86.31230454686818  -1334.064025926662 10649.07388688066 41.88769654699971  -2703.58958413952 -1894.959814048585 -77.92241443321512  -884.4589121958907 -9721.577596146519 -11.00202726308345  -5830.196955552309 -3034.650038179533 -74.09174271673368  -8709.398328096881 -4720.059207967137 -4.792425290834871  -10485.82173262608 -2195.674615646847 53.71332267954719  -11054.99381422322 -2742.419568710283 34.02688955089033  -11522.08803883535 -372.0008184790124 -20.31563899271273  -4912.564372564961 5273.851125581269 67.38595106997104  -7292.388335759018 5695.246372427062 12.78473498274332  -1042.382608194029 -10682.04991042642 -52.53147194405904  -429.0310626166307 8852.684303561011 17.13673494123753  4689.944646128937 9863.374992343355 37.85256509940868  10387.7382323627 -2970.944931001186 30.5822383820834  629.7231293765601 -3474.116165062107 81.79175721453163  1846.195217808406 -10827.87506164194 -40.43719142200463  -3825.37995503121 7734.762816713332 -25.53171579398474  11090.90193998869 2790.57432159433 -30.63788151576222  7468.910031829834 8108.440971054026 54.35695773221511  8689.192673366351 7249.533559660047 -5.513813348488005  -8996.087219477278 -6672.451684648815 -33.92964163814945  -3844.533681640066 10454.29759666804 24.72677101349655  -6466.62268430005 9025.322321818163 35.13574191156589  -704.1967678563306 -7485.282476007527 62.20817174713369  -2984.841417401342 -1367.72680695798 81.43851479953491  -6293.891855695317 -2194.010890545943 77.58006596298139  2677.500523978268 10826.62058124716 -19.54064295886228  283.9928597175837 -10998.54369309016 28.19780131389821  6744.710340540159 -7436.424771466258 14.80809781419086  11096.20794118088 2836.095503689479 26.96466049545126  5580.641308723414 -3284.217628711492 -63.4179055762682  -9881.791437500498 -5910.18390559169 -2.550231072359718  -2277.315185510291 -8016.513173220099 -46.40244294056447  6149.198115791007 5884.757825595767 39.21322774404899  -10393.25488448188 937.7837931586894 28.06766025029606  2789.146113241053 -8921.53898182563 -4.902226469606006  3128.297023452981 5935.435444639501 -73.15592170765683  1656.035621427085 10821.25958997705 29.53759472655167  -7544.266973730268 7278.831893205581 -35.85413252596268  9871.069223867438 -5439.043443450157 -22.10781644071349  -200.9521495784218 3180.822857552295 -79.4346115475488  9129.588004563871 -5445.357303773124 23.47701919837735  -11230.02475052209 2646.84561337197 -1.348694189242215  -5991.96241881155 -9556.461834444326 -5.446483928817694  -3662.335902266266 -10334.09540454112 -56.74705863868915  10397.80198700393 4884.692735722399 -10.73950089580013  -2850.716326723808 6060.589068460318 -64.9159992338038  3545.752010799019 5489.722500683849 67.50042803584978  -4314.897343550577 911.4731843145012 81.60519235580847  -4332.235804323096 9923.553587951816 50.85114070648282  10040.55727654149 -5072.670120226614 35.26113122350644  -843.9165635123709 -11015.51804285254 -21.38362445136659  -8110.637197107884 3166.348630441324 38.10311343483193  -5595.386910316123 2713.943943452598 76.27285683135835  -3410.960425864851 9384.660039858885 28.8283846598398  -8190.999487066664 -7888.130460140055 -14.69721427003415  -7.324410809263 0.9279638797023735 0.7628514439990055  -4103.721760300145 -4851.266280421418 -1.84753813782402  6164.836797993771 1886.741613003753 -0.8598524082141876  -2471.134321014936 5094.437917391248 -16.70853066198454  4618.201065213714 -3610.558366480461 -12.654962282943  -3027.059233191005 528.0753160061557 35.06837511956675  -6348.50903130312 939.4734404042414 -3.670850277185773  1220.78864763668 5764.181132964786 14.46551402636437  4313.345626566242 -2845.115699702014 27.29070653735552  -3352.128452160156 -530.3991037859428 -31.70621966067591  3210.142474033252 4274.077185121457 -30.25995111261344  -1178.72443408198 -4881.411355202602 32.07830772126684  1044.048163237791 -7026.449751883372 -1.731254810513043  2551.869382166907 1868.663883109198 36.31078933603504  -1
[...]
<PointData  Vectors="Forcing"> 
<DataArray  type="Float64"  Name="Forcing"  NumberOfComponents="3" format="ascii">-1.9012217474774915e-07 -1.0026088603842549e-07 2.3573945698546375e-05  -1.6017580324883400e-07 -8.2088702686547685e-08 -2.4344142429442778e-05  9.5413529329771424e-05 -1.4991407415901207e-07 -1.7798509132854875e-05  1.8123913620830983e-04 -3.1657430683318230e-07 -1.5400506525627236e-06  2.4019353373279538e-04 -2.7744168316530327e-08 -1.9403158030309505e-05  2.7060403932612339e-04 -1.9895689583190212e-07 1.0803427609334187e-05  2.7975023136270774e-04 -6.3320097311681036e-07 -4.0972226223643195e-06  2.7050590206619804e-04 -5.3955488617303340e-07 1.3646897205270174e-05  2.4050377684819830e-04 -2.2826429287444475e-07 3.4873136956878944e-06  1.8129131819876737e-04 -2.9779748937042596e-07 1.5139614112466146e-06  9.5467250281107619e-05 -1.1445400184941477e-07 1.7073677977180257e-05  1.2123668634217229e-04 -8.9741929272644274e-05 -8.2744023479400197e-07  1.2029373126373019e-04 6.9481766480583587e-05 4.1336089973363212e-06  2.6790028622601978e-04 -7.2667116660011174e-05 6.1468372304639554e-07  2.0703010618086174e-04 -8.4920466074346319e-05 3.8584668583919063e-06  2.5025978551130093e-04 7.5755663057033767e-05 1.5784071451929832e-05  2.4965662582503720e-04 7.4507727867955778e-05 -2.6867558057674645e-05  1.3491726325889211e-04 8.0153174948399114e-05 -7.7851656782123527e-06  4.6656343565216812e-05 -8.0164191567705980e-05 1.0424201366737475e-05  2.0558551768455065e-04 -7.8374008634571918e-05 2.4150528073878250e-06  1.4395820187188828e-04 -1.5470439910300095e-04 -2.4995905142911081e-06  2.0675206191182567e-04 -1.4638126711418324e-04 1.5583283632484020e-06  1.4043362308769575e-04 -2.0702852154449810e-04 -3.1158559695666480e-06  1.9170200777234687e-04 -1.8707805484012203e-04 5.1221446021851142e-06  1.2027342868600525e-04 -2.3720556641942421e-04 -2.1890718509590023e-06  1.6932555099439308e-04 -2.0995694016380601e-04 6.2883824630407036e-06  8.8984691497183828e-05 -2.5226638285436698e-04 2.8743989397933700e-06  1.3176539009803582e-04 -2.2329105074068097e-04 -1.1691643855965253e-06  4.8046015997581441e-05 -2.5197900767241782e-04 -1.4100482645226079e-06  8.8264474185821462e-05 -2.1488237072739500e-04 1.4662091027726645e-05  -3.2587423954148771e-06 -2.3147530495543675e-04 2.2470432032994841e-06  2.0260290390433004e-04 -1.7588312447719510e-04 1.6969471914730285e-05  2.0690353263853875e-04 7.8116074946025089e-05 1.0232875547434188e-05  2.0344111115035618e-04 1.4685488800883178e-04 1.1391144052541036e-05  2.3536111831943559e-04 1.3447605666636419e-04 1.0998853472503242e-06  3.3764672658982426e-05 -1.7706406097315594e-04 -4.2150248292576017e-07  1.2479043187353160e-04 -1.5469582330532148e-04 -3.3013842874978476e-06  1.4395161021341421e-04 1.4615433294364993e-04 7.5949663399720178e-06  1.3430184520511320e-04 2.0582875302891138e-04 4.6548235374022382e-06  2.6947325484998812e-04 -7.1352768209776706e-05 -5.7713423045539141e-06  2.3752300569733763e-04 -1.4639090648297873e-04 -1.0705768419940943e-05  2.5228154582914038e-04 -7.5707773141479249e-05 -3.8356212913621788e-05  4.6630828937064375e-05 8.0418266959365314e-05 -2.0475180223278111e-05  2.0547725649035163e-04 7.7057797347580761e-05 6.7583185696324459e-07  2.0108600020305492e-04 1.4611281960273144e-04 2.2343965176927008e-07  5.9732024554649035e-05 -2.4638767639672410e-04 -1.7387187056040410e-06  -4.2473560652845863e-05 -2.5567543598578498e-04 -1.6545855176358366e-05  6.2519100108841642e-05 -1.6064752412914255e-04 4.2220926303785458e-07  2.3481607245621889e-04 1.3759943717701762e-04 -3.8865196977338987e-06  1.7602156243378349e-04 1.9831991167854778e-04 2.3105602994322397e-06  1.3056312445378735e-04 2.0154080441247324e-04 4.7629331833207921e-06  9.9677813751517682e-05 2.4253376339257736e-04 -1.2438869226425983e-05  4.5749515597279436e-05 2.3529966871998291e-04 2.2077605830967944e-06  1.2578501496337535e-05 2.6157893166963862e-04 -7.8539494885290342e-06  -4.6421089079441551e-05 2.4113017536872347e-04 -1.5104284379018729e-05  -7.3294774197854419e-05 2.5416766924708068e-04 1.5804359491744969e-05  -1.3221370751040628e-04 2.2217523898691841e-04 -1.4216526198856918e-05  -1.4562542847515205e-05 2.6700641599243291e-04 -4.5090202073433888e-07  -9.4907328936705678e-05 -2.2041461141977445e-04 1.2112305216962820e-05  -1.2521210466118191e-04 -2.3271900448234052e-04 -1.1928530982148592e-05  -1.5141764633731455e-04 2.2468517728111930e-04 -7.6319897997481485e-06  -2.0168042644674153e-04 1.7887958830149393e-04 -6.8173069047507283e-06  -2.0926013253742248e-04 1.7322482494945961e-04 -2.7419064595147209e-06  -2.5118745691201923e-04 1.1573580835910482e-04 -1.2846716241908423e-05  -2.5376406131723240e-04 1.0981399610884965e-04 1.1177552852752783e-05  -2.2956132058681817e-04 1.1362004245378653e-04 -2.7369597598815758e-06  -2.0818615427154312e-04 1.6595463765987280e-04 -1.1770969955363181e-05  -2.6675683898587680e-04 4.9347374989280445e-05 -1.3137040245437530e-05  -2.4120070941445113e-04 9.3233709059370578e-05 2.4527994343311978e-06  -2.3800758775311114e-04 3.3646672937721710e-05 -4.9176912176632896e-06  -2.5899541905023791e-04 -3.6495649585509205e-05 -7.8687543924998203e-06  -1.8535149112859856e-04 1.4525326725411901e-04 -3.1615750146049922e-06  -4.2980109438367905e-05 -1.2310455781097880e-04 6.6438761926983432e-06  -1.7609971777643219e-04 -1.8513931809203561e-04 -4.6828265736315009e-07  -2.1759412226002851e-04 -5.0849432371234567e-05 -5.1373524340377643e-06  -2.2702040197987550e-04 -1.1543062625594566e-04 -3.1441237024698038e-06  -2.7209295520292802e-04 3.1215149882545094e-05 1.0046794214784085e-06  -1.0068596889556281e-04 1.9332512023875623e-04 2.0083156312588858e-06  -2.0811780888536105e-04 6.3401315762240179e-05 5.9204543096114295e-06  6.5690989584307838e-05 1.9678482303730208e-04 2.0635981120155981e-06  -2.5960911165285813e-04 -9.0762109410478408e-05 -9.0842825919432077e-07  -1.7955915683777381e-04 2.0904375770602922e-05 -4.3989888865297584e-06  -1.3961320140760416e-04 1.1489515719899994e-04 1.8800290847628718e-06  -1.6959578123266382e-04 -1.2933450509850953e-04 -7.6798413936820532e-06  -1.7130008683077303e-04 -1.8467533468323637e-04 -2.9901260671581302e-05  -1.4391505770060237e-04 2.0844949213994290e-04 3.7201776155659578e-05  -7.0429772914377601e-05 -2.5664959969799012e-04 -2.3412722896483386e-06  -1.4746002898537356e-04 1.9109669748089575e-05 9.0172969768689678e-06  -2.1506653988164726e-04 -2.7041884564798864e-05 8.8709717112303005e-06  -1.0212950960558676e-04 -1.9197069386988120e-04 -2.3710422084547763e-06  -9.8169752318875072e-05 -2.3402459206305296e-04 2.0296691269082554e-05  -9.0664495886072207e-05 -1.2509353787553584e-04 -3.4587870332563631e-06  1.4285556814825118e-04 2.2960389578160820e-04 -1.8507388123140287e-06  -1.9328079592475803e-04 -1.9220742808198109e-04 1.7422546647293644e-07  -2.3507794546588485e-04 -1.3076355787375747e-04 -1.3474818966952912e-05  5.2352894277843885e-05 2.4306628461884540e-04 1.7336541048635386e-05  -1.9547947113785952e-05 2.2505997066505812e-04 -3.1381465725697076e-06  -6.8206499678909364e-06 1.7439215748259580e-04 -8.5375928281562304e-07  -8.3873853639158629e-05 7.4378274539657702e-05 1.4253510398428483e-05  -1.3745106993837101e-04 -1.5839230356386359e-04 -1.0850541718951939e-05  7.1611918259708725e-05 1.9320565642141948e-04 -6.4590816366001792e-06  -1.5891457669312231e-04 -2.1779704077220177e-04 -1.2572423153421389e-06  -2.2528046501895320e-05 1.5058150352364368e-04 -1.5159640049146172e-05  -5.0760976765304051e-05 6.4270000504937827e-05 -1.8127276534784876e-05  -3.2085250544882674e-05 2.5740753728070720e-04 1.3012538955678977e-05  -6.5335510052955774e-05 -4.5776906933026953e-05 1.9005384024454138e-05  -2.1483929454385158e-05 -2.3534731074013670e-04 -2.6316179071882482e-06  -1.4099634122156300e-04 -7.3251091001077557e-05 5.4684530827760873e-06  -2.1218658735865117e-04 -1.1511325432357370e-04 2.1953713114258184e-05  -2.5350609927833232e-04 -5.2897869676318399e-05 -1.6988364615686463e-05  -2.6607032241416175e-04 -6.5864533690174090e-05 -6.4783454175263194e-06  -2.7876437582640757e-04 -8.8999812711561097e-06 3.0492811946567910e-07  -1.1868738362426436e-04 1.2756788468368366e-04 -2.1512498290996827e-06  -1.7598304086856789e-04 1.3737613364763398e-04 -6.3512681833044067e-06  -2.5302994041039429e-05 -2.5827591881471699e-04 6.1886861203382010e-07  -1.0255418544669672e-05 2.1373449398089090e-04 -1.2034922169465295e-05  1.1347656762308412e-04 2.3839393226131897e-04 5.3433371250581014e-06  2.5082354828251315e-04 -7.1814672350918349e-05 3.2672423046026658e-05  1.5173472948620900e-05 -8.3908942089827018e-05 -1.2640546122188690e-05  4.4512352452374615e-05 -2.6178725471661041e-04 -3.2815491162611442e-06  -9.2307481372512335e-05 1.8682793980488442e-04 7.2093477131918220e-06  2.6828628708094654e-04 6.7324074310608456e-05 -5.0664635934781510e-06  1.8068687525117389e-04 1.9603053107113271e-04 -1.2681551584102538e-06  2.0984224587458736e-04 1.7482996484634547e-04 8.4472457568108339e-06  -2.1754846815038063e-04 -1.6118496595534670e-04 -6.1622567105181954e-06  -9.2569837390411259e-05 2.5191123154715261e-04 -6.4373656159725718e-08  -1.5607686509559458e-04 2.1799649368470242e-04 4.0185621015765267e-07  -1.7095011638200798e-05 -1.8095871276286595e-04 -1.9167778668099219e-06  -7.2141557928114908e-05 -3.2994775457364455e-05 -2.4941014178563435e-05  -1.5211190993695041e-04 -5.2920206548763927e-05 -1.0447502207389781e-05  6.4878224698902874e-05 2.6188306569293728e-04 1.9421874419031593e-06  6.7868963056148881e-06 -2.6570627147081029e-04 2.3574656627743000e-06  1.6284571725923438e-04 -1.7962909109856036e-04 3.3029987210196106e-07  2.6824704064857662e-04 6.8530655862266687e-05 7.8892974564764781e-06  1.3478446223605151e-04 -7.9412564051073309e-05 1.0927160905951917e-05  -2.3896478648902648e-04 -1.4279635630817000e-04 -9.7792535374365655e-07  -5.5002055324030126e-05 -1.9335458904399310e-04 1.2583166929928957e-05  1.4877290909631321e-04 1.4221494695647864e-04 1.4451712337774446e-06  -2.5094266918218111e-04 2.2802058281329577e-05 1.0482657368309378e-05  6.7196914439423324e-05 -2.1519945447650530e-04 -1.2564909785252602e-05  7.5668343703309894e-05 1.4336523587579316e-04 6.3959400708895734e-06  4.0209641431549843e-05 2.6139744344994833e-04 -2.5595126859307054e-06  -1.8230780756270306e-04 1.7609165055665292e-04 -3.5209819456682174e-06  2.3857826911099741e-04 -1.3162078892518602e-04 5.0284919431549786e-06  -4.8511698573721630e-06 7.6829082267691051e-05 1.0939118385660654e-05  2.2079068450237262e-04 -1.3184795346225925e-04 -2.0857166024888424e-05  -2.7161638808492549e-04 6.4022775226403285e-05 2.0332752805612518e-06  -1.4489716445372658e-04 -2.3094171107669768e-04 6.6361907556653366e-08  -8.8365409442157640e-05 -2.4879551150420548e-04 6.5774640669259857e-07  2.5154869280817025e-04 1.1800233971923890e-04 6.0219094614700705e-06  -6.8804169706557916e-05 1.4648120639812703e-04 8.8403981005942398e-06  8.5696151962880052e-05 1.3243775134659668e-04 -1.6962890810872937e-05  -1.0415056781757205e-04 2.2138742795472592e-05 -2.4511945430412953e-05  -1.0458611352838566e-04 2.3980679976206179e-04 1.3928497006110517e-05  2.4254968542471869e-04 -1.2258489358639232e-04 3.6242079736442780e-05  -2.0531387170284687e-05 -2.6617443696807147e-04 -3.0344202750012545e-06  -1.9631845794355595e-04 7.6757155301520190e-05 8.8407795384587338e-06  -1.3523476362672389e-04 6.5632394189781563e-05 -6.8231460591717209e-07  -8.2298906619089417e-05 2.2677033244564425e-04 -3.7424246685391963e-06  -1.9781656222989249e-04 -1.9029538406366604e-04 6.1355726933007307e-06  -1.6994327775732033e-07 3.1040414567035253e-08 -3.2586657035381201e-06  -9.9244176230026503e-05 -1.1719436859473201e-04 5.3768717496333994e-06  1.4915863773570453e-04 4.5590116618496675e-05 3.0963065255774750e-06  -5.9685468691566754e-05 1.2324316769820904e-04 -5.4193160719532292e-06  1.1162172954483805e-04 -8.7339351992766476e-05 -1.5659471945963956e-07  -7.3174300990885686e-05 1.2785835450296263e-05 -8.1426244727425553e-06  -1.5363436212851718e-04 2.2831142188890259e-05 1.8435121938991872e-06  2.9585810091346921e-05 1.3934269136411936e-04 2.1770410273353750e-06  1.0430960840530290e-04 -6.8822415323222983e-05 7.0200224006377960e-06  -8.1152618830605057e-05 -1.2832059621354261e-05 -4.3924773305591133e-06  7.7703440085981489e-05 1.0337340532379670e-04 -4.6620328554706613e-06  -2.8603661088300517e-05 -1.1807426117143482e-04 8.0766622800497188e-06  2.5165933433628779e-05 -1.6979125125114161e-04 -1.6182301615014432e-08  6.1664186709469701e-05 4.5107365023205408e-05 -1.3235645488008797e-05  -2.4430549249764260e-05 -1.3278393342038738e-04 3.2094476729605511e-07  5.3952846452425561e-05 -1.6128552689183637e-05 9.9171282861050310e-06  -1.0484931232441049e-04 1.3004117662973301e-04 3.7495302211002299e-06  -1.5398374942174374e-04 -6.1680751998090974e-05 -4.0586846646082755e-07  1.5660226619718573e-04 7.6439332750656216e-06 4.6553686847014261e-06  -2.1065029133912611e-05 8.0111164955605157e-05 1.2853237016590530e-05  3.2107835020476703e-05 1.8162929069597840e-04 -2.2797995470514309e-06  1.3260846558114136e-04 1.0745547878994834e-04 -2.3230983333735493e-07  1.3176415320291512e-04 1.5038048107254547e-04 -2.3504071546373181e-06  -1.5242403705443078e-04 6.8684354178296576e-05 4.6638872212645780e-06  1.8668737493465455e-04 -5.6848770108677554e-05 5.5784536258278322e-06  -3.7256220688532888e-05 1.1950306572358746e-04 -4.7873614728489897e-06  -1.7990191772538966e-04 -6.2584873483111615e-05 -4.6198196514442565e-06  1.7642099792011988e-04 1.0220517078719469e-05 -3.9185325094310406e-06  1.3005829692884841e-04 -1.4756580087307955e-04 5.5416294530980492e-07  -1.6788014508608968e-04 5.5178725485274109e-05 -1.3847761278346262e-06  3.8515234857240860e-05 -5.8489195733992858e-05 -1.0925963882257497e-05  -6.0680019464230055e-05 -1.8537251994310024e-04 1.0748054318528382e-05  -5.8575278255836315e-05 -1.9488923962670491e-04 -1.4875216021330165e-05  6.9367316761867619e-05 -1.7267646754164697e-04 -1.4137253318217450e-06  -1.5064387181427117e-04 1.4626134295230286e-04 -2.8991505540901049e-06  5.8729618710248805e-05 -1.6856193815676662e-04 -6.1363129388788013e-08  -4.1716846477362025e-05 1.9755056010694913e-04 -2.6990184265608553e-06  -1.0189617591408197e-04 -7.5167580095406722e-05 -8.1507884984191521e-06  1.7491601229641435e-04 9.6153667021368314e-05 -4.0204561012465313e-06  2.2260086103947587e-05 8.9815326150582134e-05 2.3642198510111913e-06  6.6234100483609297e-05 4.8378762935500173e-05 -2.3147206240363355e-06  </DataArray> 
</PointData> 
</Piece>
</UnstructuredGrid>
</VTKFile>