<?xml version="1.0"?>
<VTKFile type="UnstructuredGrid"  version="0.1"  >
<UnstructuredGrid>
<Piece  NumberOfPoints="201" NumberOfCells="657">
<Points>
<DataArray  type="Float64"  NumberOfComponents="3"  format="ascii">-1.036354070732065 -0.4851988820064306 760.3806312320564  -0.5101867058033143 -0.08587183029620128 -761.3037800360916  1957.97654189783 -0.4718396007705012 -735.5353558412847  3694.301032024272 -1.280415966334568 -651.4636291808587  5027.085730794261 -1.470826792365797 -505.141513219292  5854.44419910492 -1.671748055593625 -276.430160053957  6134.799168441545 -2.359447519869696 0.4314504985382208  5854.780890274741 -2.53063712911174 276.2195229536155  5026.98843463862 -1.823565598269431 504.3723455575559  3693.951227913596 -1.428412726816742 651.8419114542597  1958.083219594388 -0.05328035826293781 734.2374777564507  2468.237774110871 -1827.36552778537 -690.2798829591296  2457.281735115267 1419.2599182048 700.8388834354212  5844.529139064471 -1584.810490901194 -134.5540268312517  4274.991601165953 -1755.229664449368 561.1403028805702  5347.061451013935 1609.521873389543 372.473624642406  5326.656774129223 1607.888695763539 -378.0615509567411  2754.832104875966 1632.76106502209 -683.1754775345275  953.7063201128792 -1643.439990130036 735.3918974360682  4249.233377390708 -1618.907215718272 -570.3394369092656  2960.659086850772 -3179.519529077014 -585.6916459544161  4359.968807448786 -3086.363550037849 -423.2400902454364  2985.859059520617 -4408.242430465438 -409.0735827635118  4182.133400382418 -4109.786660544907 -207.2367447139917  2622.782906686578 -5213.793628113145 -176.2341586765618  3729.61896772704 -4670.8184283967 45.10751435697966  1958.070677689234 -5565.408461649924 80.19522360406899  2852.52453277075 -4852.179432827043 301.751569810364  1027.684849727184 -5442.40146504634 318.9370728164414  1841.488907838983 -4476.556141073513 507.459711608805  -72.89984208745391 -4808.552369754673 507.9895702338802  4372.225798179166 -3807.134751175573 254.9179476047583  4251.765792770724 1615.755888890768 570.2033476065515  4275.643421276881 3105.67352437949 437.4858581168784  5137.240587153219 2952.882277559706 204.5141940892805  694.4333368599495 -3609.973409710776 641.3360650547356  2543.799209406583 -3157.771669106326 613.428652699438  2965.216329679824 2999.115046915968 600.9766472750314  2830.3558158432 4345.595243529793 441.7924272771832  5856.617366117468 -1546.66259562403 134.9399008008508  5161.584975369298 -3190.283460740061 16.048909554946  5359.582136776183 -1613.555513888642 -367.9927480359191  954.7720058569071 1643.122241640962 -734.3361861027613  4210.796445328602 1577.226204180206 -577.1170008253207  4242.841432936226 3089.828059740313 -445.2608415648519  1277.760484245682 -5286.997256235332 -357.3417071564412  -897.0687154232658 -5505.884417627975 303.0022405263792  1270.560594891629 -3280.723772378517 -655.3905130147335  5103.437504779477 2990.439273232076 -211.3881415565163  3820.1767671029 4322.802575509248 -254.0230662561538  2735.667863509909 4242.76748008793 -472.1279109967139  2144.078296728333 5246.022335189855 -272.1352273555009  954.9734750540352 4961.11434293748 -460.7066554506487  277.3352657511083 5677.164523427798 -247.5630752478622  -974.7763695957108 5098.588595241054 -427.2878886837548  -1597.456609690003 5568.291288332027 -188.1108443012176  -2826.952480130969 4773.897166487864 -334.8370469127782  -306.9039517009652 5888.224955382915 17.18294637938744  -1984.236938420777 -4612.930489835626 472.0100491143015  -2716.618031808989 -5058.21325046026 243.3237884932186  -3303.473116850277 4936.730899408827 -92.87821115388221  -4370.474531952752 3871.099642402276 -232.6238674161163  -4642.931267454196 3851.378670059725 20.96233686805575  -5454.239131656864 2542.459443576458 -146.2623937351457  -5527.248198810037 2413.110398799508 135.3676794439728  -4876.087078320499 2427.055289608794 -403.6411289761616  -4482.875882096459 3578.184838740831 290.4230605117335  -5778.995927402209 1059.338675855466 -263.1566412457788  -5137.164458604816 1996.927589191974 389.2897715157808  -4967.549743997713 688.0184824537118 -506.2094170014003  -5541.313415451037 -769.3091784861905 -371.8232715986172  -3846.828744595937 3028.877571281224 512.7137118640875  -873.8343453714352 -2515.050454788146 704.3212604910246  -3727.444029619353 -3930.233074923751 391.6534759181103  -4482.112632402833 -1051.984727980748 -565.2206756943737  -4802.662967988739 -2451.277329137081 -417.7771551345949  -5906.819898891193 673.4049079563506 227.6183072620147  -2084.534986948899 3997.093752106393 -560.5253485959568  -4272.931837478356 1300.44592504526 582.4325984774327  1346.411436359815 4046.574168903763 588.5025092997527  -5683.500475578365 -1992.707474171568 -154.4635291255369  -3657.02393959439 425.1345265580402 -654.0936782374183  -2847.908080072608 2330.390214298953 649.1415734017778  -3494.854876668241 -2663.2856706242 -584.6211886120584  -3625.951659811596 -3926.645260677987 -410.6891137867829  -3051.609105163652 4422.979560175545 395.6160028796742  -1549.172622674469 -5694.518206609429 58.8470090045442  -3012.653534114239 394.2311653453929 691.7291024981748  -4409.306877186971 -561.0811379246777 584.9262731820668  -2110.478022212507 -3971.331980204264 -560.8360860625593  -2096.848873905759 -5012.795090903855 -366.5593950655421  -1837.750696387326 -2541.56870967295 -683.6825487610859  3115.324918980369 5076.354881596643 -25.66013864036361  -4192.560917894549 -4189.278713910325 159.7019608712405  -5056.151441049562 -2834.23976108805 278.0481151313327  1109.236815135318 5157.330794037871 406.552321094809  -402.5356984005239 4680.283804174498 525.1187098357411  -139.8725629455482 3559.562784405916 653.2512238218342  -1713.99229540705 1516.376748505312 724.0222568212562  -2824.819527683973 -3250.189644616451 589.8727532506047  1475.844329834033 3958.972180385545 -592.8015598075212  -3448.17754536476 -4720.248612806722 -196.8511931737311  -465.021022194321 3061.205655043588 -682.4723871735395  -1040.195089554663 1320.576872508931 -741.6781072782882  -685.4746569908291 5532.770361598409 302.2725596814681  -1340.034973612086 -936.4118147923311 741.4886805199212  -450.2705522558285 -4891.960999891387 -488.3701884059133  -2875.506790202683 -1491.007669273715 681.7186740595309  -4375.561690157492 -2369.839731766268 503.6984017085825  -5411.814305092706 -1130.946521205244 391.3120265940035  -5881.826324251459 -1459.177247176129 127.6896517346364  -6107.832930463875 -187.9651938304677 -79.44030970633827  -2414.969722799414 2594.958437800354 -658.7073577149705  -3632.5437041316 2846.165233115601 -555.9781075357217  -527.5811336150742 -5573.73386109199 -292.0800615985472  -211.2292845759922 4428.899268648874 -565.3616734664919  2455.153211866223 5194.034494484631 234.3206789492336  5326.019816372148 -1541.826202075345 383.3244296023947  314.5322727872724 -1724.769217062632 -737.4234570771806  969.9562712841969 -5757.381206137613 -139.6321384086894  -1902.118345074355 3837.756464424552 587.430030287674  5869.866573012975 1482.45970869465 -137.4611851518372  3931.282516172413 4281.385848653101 232.1692236436958  4626.155132734302 3870.159932090813 -10.34108143150177  -4697.652649890306 -3510.809267049806 -226.8284928208998  -2033.540291528714 5546.966919368442 70.73397497268405  -3414.775206720649 4787.182413975192 165.3799311437648  -341.7021381578357 -3689.216128882092 -639.7370431520758  -1478.061854501641 -679.0019290407438 -743.5097933141001  -3095.012736498998 -1081.608845676257 -678.9145891804374  1419.01855365977 5730.759878730871 -46.94615151962014  163.2542705379336 -5861.525837536986 100.9529571309842  3424.353038081954 -3766.623797869839 470.1669348372898  5879.035743359321 1501.742552966451 121.9609626228063  2754.66288777644 -1622.308033660499 684.6077896263918  -5192.649685201321 -3140.53453855734 22.27848540236623  -1122.101578631054 -3967.532519233364 602.553522918855  3049.121668971574 2908.038676744276 -600.7484372245806  -5305.035424338211 476.7295714759195 443.9469915648911  1396.424176553851 -4456.786367776121 -533.4076549525063  1543.485178240679 2905.621859259318 672.8441083571472  876.271816539944 5712.350606190855 189.2078789316701  -3848.652103969711 3727.521805701228 -411.0553002982201  5146.040701884235 -2848.741356756638 -234.3259780618121  -96.90663180533741 1584.273715260307 740.333760784588  4683.731090142579 -2788.91025641867 398.2504061603208  -5955.606989655271 1407.399592727383 -20.89725023629386  -3174.018692077241 -5048.925446725887 7.948099650333916  -1941.182888596933 -5514.15483932171 -150.61116032993  5506.923829651668 2601.587608070725 -6.794526646342165  -1404.546486995925 2980.719566144264 672.9341535759864  1751.163178129251 2705.95665691964 -678.9642803969532  -2134.259507159602 448.5333838100931 -728.2868748841471  -2252.524865686413 5179.302230920813 283.9640690610137  5234.335565401807 -2651.078864004875 246.7219152662521  -422.3304007067275 -5857.331544369461 -90.91799799308959  -4011.29141236465 1564.031975176865 -597.3421258999614  -2762.517583348497 1339.237997694975 -691.61175819904  -1733.319684589848 4791.683079057688 454.6576018400393  -4318.205962349965 -4179.15151735574 -50.56989466585932  0.0002546673210264892 0.2178894661087512 -0.09609092074349039  -2015.876526656313 -2376.206106485804 21.36897255764926  3046.208192658806 925.9209638427586 -3.666211460375715  -1215.301682712755 2501.552267662837 173.0509251581767  2273.288573616898 -1773.945481215602 157.4053081152568  -1490.085385476266 261.3427507192384 -341.0222478194551  -3133.271741704797 471.9275904780345 -0.05852193086646304  600.9456602604362 2827.905552313156 -150.8888191636797  2122.600478859835 -1396.647119939459 -233.3099275469184  -1655.967963002237 -265.2018736126916 332.0093148955067  1583.4169065118 2105.175623385635 272.6258743242931  -584.8042929386786 -2404.972390915444 -295.3010915693809  518.6808764472549 -3456.283885287612 1.383964881049497  1264.393982158441 924.7173612508335 -380.39240
[...]
<PointData  Vectors="Forcing"> 
<DataArray  type="Float64"  Name="Forcing"  NumberOfComponents="3" format="ascii">-4.6366753897372477e-06 -1.4611237669459762e-06 -2.9435878305082773e-04  -3.0338277512428423e-06 -5.9553163568447667e-07 2.9267261454939136e-04  3.3464626158739513e-05 4.6407973627039839e-07 2.7553681640932084e-04  5.9590932579100454e-05 1.5213884642707452e-06 2.4839765016077930e-04  8.7711390049992008e-05 -3.7955402197870158e-07 1.2996254533848413e-04  9.5249381938572290e-05 2.5400282728899647e-06 8.9697618646376808e-05  9.5034991908785684e-05 -1.6199514891331388e-06 1.7506730384458245e-05  9.0681998146359722e-05 -3.2454957572625093e-06 -7.7360106693995101e-05  8.6892644344922654e-05 9.1117227024397789e-08 -1.4226194364574824e-04  5.9133362222124417e-05 3.7857470810089143e-07 -2.4354845157608827e-04  3.1847802485848526e-05 3.4654949767804054e-06 -2.6361828938764251e-04  4.3778591801539590e-05 -3.0983961195531905e-05 1.9434456964760049e-04  4.0104272954595234e-05 2.1221563938273170e-05 -2.5913196449528259e-04  8.3164503008316862e-05 -2.1583355059157416e-05 4.0325561646991791e-05  7.1140211294448436e-05 -2.8152757832347708e-05 -2.0554292434537614e-04  9.0563307891360973e-05 2.5326498353845622e-05 -1.2547378601486720e-04  8.9422167341859620e-05 2.4367713085148745e-05 1.3316120484230742e-04  4.7622056293254792e-05 2.6820424663330218e-05 2.3467990339231704e-04  1.6178907210831343e-05 -2.8002762047707299e-05 -2.2640924865342528e-04  6.7933517059270998e-05 -2.2945461293945362e-05 2.1064244108880256e-04  4.7442545732462568e-05 -4.8782618338470427e-05 2.0721513219127869e-04  6.6799872720903542e-05 -4.2691875867020101e-05 1.4662775938125292e-04  4.8035681230612471e-05 -6.7809718300490879e-05 1.1485203775443176e-04  6.2395877690856925e-05 -5.8094658351693429e-05 5.7627849605087742e-05  4.2510816923219370e-05 -8.0400539797443251e-05 5.6942946323446543e-05  5.4338667269842998e-05 -6.3327819370900839e-05 -3.1297288662930360e-05  2.7008033068315511e-05 -8.0403415878426839e-05 -3.1723193241977705e-05  5.1379848499269873e-05 -8.3952094467637135e-05 -7.3684794942818611e-05  1.6976220555393710e-05 -8.3741687405816767e-05 -1.0680392099672624e-04  3.1161777085190590e-05 -7.3481114465966406e-05 -1.3555518730894604e-04  -7.2544767417285349e-07 -7.2300909777216218e-05 -1.6560122359615299e-04  6.7453118575684285e-05 -5.2493664274416730e-05 -9.1396101146807798e-05  6.3845670799305597e-05 2.1476352053720661e-05 -2.2058981463272696e-04  6.9123650341568448e-05 4.5282439741660699e-05 -1.3667889211158089e-04  8.4917168312469702e-05 4.7440188065063915e-05 -7.9770848610531879e-05  1.1993570776379872e-05 -5.6457729026834267e-05 -2.4338101472518999e-04  4.0982837838214411e-05 -4.8404283541708070e-05 -2.3275703627658077e-04  4.3797856414545537e-05 4.2594402064150120e-05 -2.2068489168834674e-04  4.2106175375604230e-05 6.3603905930072666e-05 -1.3610138348118091e-04  8.0776988127627357e-05 -2.3755801531056664e-05 -5.5766578210632437e-05  7.4692636442263660e-05 -4.3411748567662197e-05 -1.1902228795617247e-05  8.4050603783951544e-05 -2.6081406811086702e-05 1.4065830020312592e-04  1.7692044702330504e-05 2.3707031837592789e-05 2.9506649322354927e-04  6.5943788182385531e-05 2.3144131592665927e-05 2.1541196444469388e-04  6.8421165643781488e-05 4.6493877890713165e-05 1.4134229084441737e-04  2.0111260498162650e-05 -8.9019969185422803e-05 1.0802190359823188e-04  -1.6054849789336812e-05 -7.6699391203040968e-05 -1.1938362640134814e-04  2.0234380383953194e-05 -5.2697936185603107e-05 2.2224222765740984e-04  7.9386005131560475e-05 4.4727183281186080e-05 8.1298540670217425e-05  5.6397287778603779e-05 6.3766249607753966e-05 8.5763781708353523e-05  4.3996552646725221e-05 6.2138274094871847e-05 1.5641858336158310e-04  2.8854451783062419e-05 7.6680691102708025e-05 9.5783303791016690e-05  1.6296178706036851e-05 7.1619343857494825e-05 1.7847996005212279e-04  4.5211266804975277e-06 8.2856940857722333e-05 9.4970632971597588e-05  -1.3981202173253718e-05 7.4592285755082987e-05 1.3932788591503121e-04  -2.4399205060356754e-05 8.2201845505232025e-05 5.3380927655015941e-05  -4.5621074060408091e-05 6.9823135763724317e-05 1.1753906419484051e-04  -3.9632731855395188e-06 8.7817597426587750e-05 -1.2268518663041356e-05  -3.1282722674556519e-05 -6.8967771954766839e-05 -1.5459750739512076e-04  -4.8936793002659314e-05 -8.2802764831897357e-05 -6.8264967356004432e-05  -4.9234501833951960e-05 7.0637905569813833e-05 3.1708708859647631e-05  -6.5378596314961544e-05 5.6303772807187973e-05 8.3942977387327150e-05  -7.6605976563244634e-05 6.1963957120991380e-05 -1.6203855297490517e-05  -8.0725504225415744e-05 3.3786515072028904e-05 4.6867924450585293e-05  -8.6602028341479305e-05 3.6503526384232093e-05 -5.2954717009701234e-05  -8.4593505692682669e-05 4.3577930231255611e-05 1.0953417352213928e-04  -6.6846756497194494e-05 5.6320690511344822e-05 -1.0116890379879533e-04  -9.4072910725640250e-05 1.8587662982513686e-05 8.6765349454867021e-05  -8.9590016316016966e-05 3.5049798679955779e-05 -1.0843474485002640e-04  -7.8535674580234655e-05 1.3611070311590345e-05 1.5303312665765413e-04  -8.7681121228827042e-05 -1.2128179429529082e-05 1.1213660507817673e-04  -5.6345274445842724e-05 4.1276058140373805e-05 -1.9470316514637000e-04  -1.1941470246925227e-05 -3.8017764414879010e-05 -2.6011221779787740e-04  -6.0283016464376546e-05 -5.7608100497162134e-05 -1.3384630197337092e-04  -6.6920701371092189e-05 -1.3926631847579415e-05 2.1534343764069766e-04  -7.6335995657189704e-05 -3.7738777452109313e-05 1.5551123211203337e-04  -8.7399605826706138e-05 1.3569589711964143e-05 -7.7143597970451546e-05  -3.4480786574038191e-05 6.7160660351427010e-05 1.5473125025400479e-04  -6.9389127008429973e-05 1.9268882444710449e-05 -1.7311708900121447e-04  2.1430673102376038e-05 6.3507535655816347e-05 -2.0145482055214254e-04  -8.4089917605772007e-05 -2.7634586707477052e-05 4.7272722581449913e-05  -5.6590322112406022e-05 8.5070536940605334e-06 2.4289754667350863e-04  -4.4565802030898669e-05 3.8395264289919011e-05 -2.3555269070960557e-04  -6.4254738861262969e-05 -4.6178758255179149e-05 1.6424479124053245e-04  -6.0548318126404482e-05 -6.2116045361219487e-05 1.5245720324986013e-04  -4.2854792302215555e-05 6.5061505092155254e-05 -1.3752718988584693e-04  -2.3399761317403777e-05 -8.7431965061208325e-05 -2.5364754189779913e-05  -4.6124118365860158e-05 6.1496016474079083e-06 -2.6597557271427433e-04  -6.7994797871814990e-05 -8.9299286324496292e-06 -2.1140963220658257e-04  -3.6033081188951638e-05 -6.0829816336191499e-05 1.8922444906821704e-04  -3.3646119338450745e-05 -7.7416127551796455e-05 1.1599232030662891e-04  -3.1585840733212761e-05 -3.9454837364248733e-05 2.6570535192130338e-04  4.6973629573804350e-05 7.5278776572219812e-05 -9.5588673408024009e-06  -6.5421409100469547e-05 -6.3169675827329217e-05 -6.8419828668631839e-05  -8.3402098110270151e-05 -4.6670731301646307e-05 -9.0272408813384748e-05  1.6515436875586034e-05 7.8094086213710204e-05 -1.4893473231175966e-04  -7.3327478035200782e-06 7.0083618342010908e-05 -1.9102329555352872e-04  -2.3626098655839633e-06 6.1597889563568139e-05 -2.0621017253181733e-04  -2.7808196017907877e-05 2.4227109355188428e-05 -2.6154123751666726e-04  -4.5640598208893489e-05 -5.1672410972143424e-05 -2.0534477685477269e-04  2.3296808736156523e-05 6.1448693301588325e-05 2.2009803327840467e-04  -5.3094133847348600e-05 -7.2038265859728008e-05 8.6144431725336911e-05  -6.1402657110177090e-06 4.9155944515358232e-05 2.2014401477175454e-04  -1.5766562234394855e-05 1.5984943206777061e-05 3.0225665337310544e-04  -9.7466572602637108e-06 7.8786357612285773e-05 -1.0415158170667901e-04  -2.2777913111923877e-05 -1.8481733076313694e-05 -2.9734848987255681e-04  -7.0524542074398289e-06 -7.2858846778349438e-05 1.7660071350687314e-04  -4.7052790561585165e-05 -2.5729002775426912e-05 -2.2505042572255060e-04  -6.8715018514971710e-05 -3.8489281854318771e-05 -1.9694733268752764e-04  -9.1396442684786916e-05 -1.7698589529359905e-05 -1.0937520004470696e-04  -1.0189395723888028e-04 -2.2439444356687930e-05 -4.4616396180911930e-05  -9.4397732927227235e-05 -5.5290597150690304e-07 3.4774376427496029e-05  -3.8698031466287246e-05 4.1649524860550055e-05 2.4138822928457336e-04  -5.6876359673995898e-05 3.9608167145326616e-05 1.9177849550689951e-04  -1.0665276843670320e-05 -8.0681817967464428e-05 1.2246359425822819e-04  -1.4550967958237840e-06 7.5976581412222829e-05 1.6085824874115124e-04  3.6943491960223415e-05 7.3547795319484145e-05 -7.7663145675714240e-05  8.3675314936964204e-05 -2.4664250742690323e-05 -1.0978591323258697e-04  6.8453497275773156e-06 -2.8294512300101345e-05 2.6036965932802256e-04  1.5326456636726429e-05 -8.2801079662859041e-05 5.4957723306027231e-05  -2.8484043678388191e-05 6.1967956938056463e-05 -2.1023436060557915e-04  8.5462797927071668e-05 2.1085203294464828e-05 5.7728775173508072e-05  5.7352107057667828e-05 6.0283652596111833e-05 -8.4017496263398707e-05  7.0232104694774986e-05 5.3358181331933308e-05 -2.3671085552897070e-05  -6.9598840323853437e-05 -5.1191208912780465e-05 7.5796922131129570e-05  -2.5878148483502388e-05 7.3922993053136116e-05 -2.2538472621611813e-05  -5.1066423396385066e-05 7.4339826038987978e-05 -5.2855007456086280e-05  -4.5273901794437776e-06 -5.6988367172709829e-05 2.3144245636189657e-04  -2.5321523868309728e-05 -9.1475266560909699e-06 3.0430357674539007e-04  -5.4743163503290755e-05 -1.5610852771935184e-05 2.0602351714486925e-04  2.1106160902711871e-05 8.0152277170456834e-05 1.9084406912798533e-05  -1.4525984259624232e-06 -8.6590819018322654e-05 -4.0770214788110662e-05  5.1943084903561016e-05 -5.8045540730140640e-05 -1.6224485649340861e-04  8.5395525604302965e-05 2.0099698410345285e-05 -4.1303530419622091e-05  4.5979289943084334e-05 -2.7109431816637448e-05 -2.3527095314171507e-04  -7.6678631169895496e-05 -4.4935700325410133e-05 -6.1874688116627958e-06  -2.1056906165626943e-05 -6.7775638553015403e-05 -1.8190708411478735e-04  4.8858077379544774e-05 4.3586003710074503e-05 2.1755021527489850e-04  -8.1175533219089144e-05 9.2322521905779087e-06 -1.5897998953100933e-04  2.1127840872774283e-05 -6.9051666010540080e-05 1.7797479075976855e-04  2.6545493447147066e-05 4.7502553106255634e-05 -2.4360552305814577e-04  1.3860294385800189e-05 8.4687306355902354e-05 -6.7854687845023592e-05  -5.9034668997232345e-05 5.4079273732590904e-05 1.7041930053553330e-04  7.3024026786117470e-05 -3.7728272640621690e-05 6.6388105273998193e-05  -4.5365556942781439e-06 2.4270313602116029e-05 -2.7396548712651494e-04  7.3361330465499574e-05 -4.4311550434442915e-05 -1.4997474412201554e-04  -9.0142111821822342e-05 2.0636418320679840e-05 1.1365784792571302e-05  -4.9173583845696194e-05 -7.1921999350438114e-05 -5.3072538585571877e-06  -3.3677605438592845e-05 -9.4505302874941399e-05 4.9798572486518850e-05  8.6401404837521594e-05 3.6963796433472386e-05 -1.4309818857430501e-05  -2.3247852425970423e-05 5.3844914181832978e-05 -2.4147923679120628e-04  3.1354269817276843e-05 3.9370621315827269e-05 2.5584245551539677e-04  -2.8763691844390461e-05 1.1330458462672731e-05 2.8607169168446453e-04  -3.2220311882351772e-05 7.6223434380854073e-05 -8.2997397106137637e-05  7.2801854331516430e-05 -3.5589178071078405e-05 -8.9551478912088708e-05  -5.8048458953013100e-06 -8.8980238810264863e-05 1.1565502353429200e-05  -5.9075876927860405e-05 2.2716608459133556e-05 2.5540638658830457e-04  -4.4357771236287862e-05 2.2616918677655424e-05 2.7052192960156426e-04  -2.4079198987044979e-05 6.9100463049263306e-05 -1.5476684093996353e-04  -6.1554847375051014e-05 -5.5533059383531199e-05 1.0697340682897540e-05  1.1579488942731835e-06 5.3236632880235443e-06 -1.0210859838201284e-05  -2.5916404606269079e-05 -3.1197470012348025e-05 -1.8943943363542330e-05  3.6257112883655679e-05 1.2990802239409138e-05 -9.2124316523736086e-06  -1.2858131985135474e-05 3.1442884225873512e-05 -1.0535670464401409e-04  2.9128750498529516e-05 -2.2888062817298463e-05 -8.1080585362522468e-05  -2.2641102041264651e-05 1.7285642887400096e-06 1.8257497909739262e-04  -4.1857981317531259e-05 5.7660688198204575e-06 -1.0667376083381224e-05  7.6144210775140834e-06 3.2952209728947017e-05 1.0447203140206825e-04  2.7734169685593988e-05 -1.7181060574426890e-05 1.0311831817610901e-04  -2.2685888752531653e-05 -1.2015905704596178e-06 -1.7173668958557126e-04  1.9678126774895486e-05 2.4634514324861494e-05 -1.7393935781846742e-04  -7.4695188549505813e-06 -3.4388953462183538e-05 1.2543199167342771e-04  6.7191796389777200e-06 -4.9912439289318604e-05 7.6706303581850217e-06  1.6493182023391923e-05 1.0148363275362115e-05 2.2936003544941512e-04  -6.3002832645156261e-06 -4.0001365556631344e-05 -1.4523712031550993e-04  1.6959360044808280e-05 -5.9618525141450539e-07 -2.2136141051680273e-04  -2.9897439472532250e-05 3.7032912043376180e-05 6.8585613797225904e-05  -4.1723803184296538e-05 -1.3762831111540369e-05 8.1700310836516933e-05  4.5170948475321655e-05 2.8809191739440765e-06 -1.4636640246834296e-04  -6.0767257122128245e-06 2.0978418541579671e-05 -2.2912794374390310e-04  7.6904522635878481e-06 4.2942350589928823e-05 -8.7634808847726679e-05  3.5733934230643480e-05 2.5013379304534958e-05 1.3963453704486794e-04  3.7669601588101845e-05 3.6747809132785830e-05 -6.9496123384139657e-07  -4.0706320082676848e-05 1.9336525804157321e-05 -1.6012137383164424e-04  4.3670012592047766e-05 -1.2880155705920634e-05 1.7151146351146946e-05  -1.1527054804596986e-05 3.0654737574573827e-05 2.0277465599367824e-04  -4.6982989096828731e-05 -1.4868485496472066e-05 -9.8092873788412281e-05  4.9261393840943563e-05 7.9220752988948286e-07 1.3044845863614360e-04  3.0905987089999049e-05 -3.4132871054563776e-05 2.9913372069447199e-05  -4.5027191876639205e-05 1.4960594836024186e-05 1.3962143214458830e-04  1.0556228405927007e-05 -1.7349006905329904e-05 2.1033547880925800e-04  -1.5870943522825705e-05 -4.7641597722425876e-05 8.6966546821022741e-05  -1.5473365925933593e-05 -4.8520275410146060e-05 -8.5201678084220717e-05  1.8583061680997009e-05 -4.5008877501433902e-05 -1.1940764599044152e-04  -3.9249169513760074e-05 3.6325586374948077e-05 -2.7853417150049654e-05  1.5497549245994088e-05 -4.5015738631107641e-05 1.5226045436797958e-04  -8.7122617376373271e-06 4.9609435032447375e-05 2.3520065225625474e-05  -2.9300678381313550e-05 -2.0890860941715934e-05 2.1914875633863862e-04  4.6117324052005802e-05 2.2659660814103708e-05 -1.0736613446600229e-04  5.4032217502377602e-06 2.5693929681962002e-05 -8.5662524030032049e-05  1.8883512286640140e-05 1.4375977388961364e-05 1.1087295641102453e-04  </DataArray> 
</PointData> 
</Piece>
</UnstructuredGrid>
</VTKFile>