<?xml version="1.0"?>
<VTKFile type="UnstructuredGrid"  version="0.1"  >
<UnstructuredGrid>
<Piece  NumberOfPoints="201" NumberOfCells="657">
<Points>
<DataArray  type="Float64"  NumberOfComponents="3"  format="ascii">-6.881233358952755 -3.583063560840133 -75.00169206438835  -6.146463682723798 -3.305902281543689 79.53585579369201  3950.363160509476 -4.901882690663246 84.68721297721385  7497.133568703965 -10.95914407928689 77.62184208160119  9960.885052725551 3.144978349763494 -9.861069588769027  11186.47135557382 -3.119172145765019 -37.73321186473484  11564.0851038585 -18.88193153633922 8.93927241755604  11188.09104688887 -16.40635262901202 47.43433291871801  9955.908270001812 -2.8117559394091 15.62914541830582  7500.313052464896 -8.455739541621867 -70.62575616525862  3952.133022200861 -3.146465747399576 -84.78980869526936  5016.161364225086 -3710.801252433809 70.10646921719405  4975.717138143536 2877.317434574029 -90.1511905430379  11092.29720533133 -3003.347764159486 -26.01605911934757  8564.193180716858 -3509.44248737057 -17.98721762055754  10359.68935749872 3137.369377653407 47.42598618813597  10341.67721631687 3094.822300820594 -46.59918259947085  5581.214049530789 3319.343508880934 74.02715887290873  1931.328609573188 -3317.272794804356 -84.10344618193295  8505.964027634755 -3238.813335812705 25.44031439373066  5959.217574834401 -6399.118486679117 41.7555312522336  8553.783463328351 -6048.533535933242 -14.45908162149968  5813.760453753306 -8564.202565050246 -56.29825415373537  7937.352543336869 -7737.776835240966 -50.7202406947829  4978.956451711181 -9808.829412570376 -52.65233885730129  7021.39669428618 -8697.72507059419 15.30282081646326  3684.332883161896 -10430.25894995122 14.50372000251809  5454.898199878492 -9234.230001225655 68.6231906567395  1990.870432447753 -10422.45255448736 56.73648354645235  3662.774092641149 -8908.928242387743 17.79816569045437  -132.4854594344285 -9570.070565413314 13.34192296262455  8387.25837471169 -7275.394395725945 41.9606177509435  8568.390935981888 3241.212156644188 -26.5067836266789  8413.41301711417 6082.405470456108 32.08208679178782  9743.708452154913 5574.781305048517 36.86208534935456  1399.46273819678 -7322.361620073941 -75.43162179184822  5163.454146694334 -6396.396380128823 -49.43136880917808  5960.684132537328 6055.9840794227 -39.05114390449586  5547.041561264157 8509.664226463179 24.04774382076161  11137.29751860009 -2942.852140776973 32.28708596930623  9814.130519943872 -6040.466631328023 14.70429340652337  10445.95584495012 -3132.767837223173 -28.38614884677048  1928.098312256763 3331.111895253736 83.5494581021764  8494.052191388961 3188.924561042011 23.9685484828849  8314.437310278727 6046.921878998193 -34.81803307860918  2475.618426344882 -10191.77905590208 -61.07736731819688  -1753.150646475216 -10564.78499709243 64.27707065114237  2589.444352894364 -6644.978900348304 82.91987492407344  9703.68214427237 5688.914133610471 -44.90576485479266  7277.364022975094 8205.950471886901 -56.81258520022102  5399.99777290268 8344.172805162698 -16.61515138791751  4120.33094861786 10037.91468257795 -41.60778165761604  1886.030458156041 9737.200551483793 -22.56721510284919  517.1035599041325 10820.02896729429 -41.75297554740385  -1919.762758322657 9977.06096712426 -21.48011568953348  -3034.362256297838 10512.16244506287 -41.33045244234715  -5478.20642081138 9192.644744620475 -46.2490271487562  -609.0502435962977 11079.15875157848 4.798851157383535  -3919.451333727689 -9105.793503538944 14.12732969558505  -5175.042648294285 -9624.873947573524 50.07953598529654  -6272.759821378893 9298.548476284155 -28.57208686197765  -8345.276494206038 7396.465180952149 -51.97048330013497  -8734.064173432593 7229.08745305794 0.5743631427736844  -10383.46696866064 4776.537962596478 -31.36722845232792  -10490.16539354465 4530.051851117796 18.65069471599634  -9496.546702113692 4696.298810602257 -37.15062621694761  -8608.619583797061 6856.088762410267 48.45303386460307  -11037.77800557466 2032.476352741757 -41.8762121621392  -9977.70483510948 3853.045471008932 34.60272841223841  -9856.69854278887 1388.045751202082 -12.68490252251439  -10714.70206953532 -1513.757775748707 -41.38392281214198  -7672.549660865341 6005.567104206901 -3.19589186641781  -1775.518236043188 -5095.475580364408 -82.1967232643342  -7282.481469014563 -7665.678636187852 23.82804573203541  -9008.236611254028 -2110.664123899592 16.70057421117451  -9390.448461319607 -4780.267197861188 -31.26514063326198  -11248.13216702658 1286.918438176699 38.5879287732019  -4167.624180543774 7993.909012894923 16.01065288820786  -8616.734925499928 2621.063222799948 -19.82389367363783  2714.610121564448 8145.470491879631 -29.05706173816537  -10738.83173516802 -3758.542031989381 -44.87727734213524  -7428.621293682095 861.8083241807292 65.21951704503579  -5776.45417830082 4750.243090754605 -69.59892585439718  -7017.409613978516 -5356.408873146982 24.57826710540849  -7090.072740320706 -7652.783211280627 -30.86617293521104  -5956.274226118318 8633.979747022304 33.82389111859257  -2913.896494015265 -10635.03140180391 19.24732688929993  -6104.351799843472 789.3255982025519 -85.78016285398303  -8905.102391612738 -1123.243425161333 -37.70871722208619  -4224.385420634984 -7949.106811036268 23.83741292858855  -4054.945382577009 -9675.774923758887 -66.16065049129594  -3748.996995480057 -5177.378981120115 72.8285370396361  5927.15121069788 9535.559598166223 -7.180062230532744  -7996.030133880198 -7959.276723611373 15.95216728948832  -9716.266344780572 -5412.725471772508 37.14437138786764  2164.370830875539 10062.26939790246 31.42767434661278  -812.4188337885853 9306.679031507199 -6.468372917881027  -285.1562936106479 7213.646948559382 -57.16970155521267  -3470.156157099507 3076.767667698711 -83.87991381157616  -5679.502403359233 -6550.201931826989 -28.33198766347238  2959.551971197213 7997.65118126873 27.44843989349516  -6570.818241448345 -9010.02502157886 -36.74284240524025  -935.1243697109951 6236.196629153464 78.47825196302443  -2103.007606814189 2660.85202027737 86.31230454686818  -1334.064025926662 10649.07388688066 41.88769654699971  -2703.58958413952 -1894.959814048585 -77.92241443321512  -884.4589121958907 -9721.577596146519 -11.00202726308345  -5830.196955552309 -3034.650038179533 -74.09174271673368  -8709.398328096881 -4720.059207967137 -4.792425290834871  -10485.82173262608 -2195.674615646847 53.71332267954719  -11054.99381422322 -2742.419568710283 34.02688955089033  -11522.08803883535 -372.0008184790124 -20.31563899271273  -4912.564372564961 5273.851125581269 67.38595106997104  -7292.388335759018 5695.246372427062 12.78473498274332  -1042.382608194029 -10682.04991042642 -52.53147194405904  -429.0310626166307 8852.684303561011 17.13673494123753  4689.944646128937 9863.374992343355 37.85256509940868  10387.7382323627 -2970.944931001186 30.5822383820834  629.7231293765601 -3474.116165062107 81.79175721453163  1846.195217808406 -10827.87506164194 -40.43719142200463  -3825.37995503121 7734.762816713332 -25.53171579398474  11090.90193998869 2790.57432159433 -30.63788151576222  7468.910031829834 8108.440971054026 54.35695773221511  8689.192673366351 7249.533559660047 -5.513813348488005  -8996.087219477278 -6672.451684648815 -33.92964163814945  -3844.533681640066 10454.29759666804 24.72677101349655  -6466.62268430005 9025.322321818163 35.13574191156589  -704.1967678563306 -7485.282476007527 62.20817174713369  -2984.841417401342 -1367.72680695798 81.43851479953491  -6293.891855695317 -2194.010890545943 77.58006596298139  2677.500523978268 10826.62058124716 -19.54064295886228  283.9928597175837 -10998.54369309016 28.19780131389821  6744.710340540159 -7436.424771466258 14.80809781419086  11096.20794118088 2836.095503689479 26.96466049545126  5580.641308723414 -3284.217628711492 -63.4179055762682  -9881.791437500498 -5910.18390559169 -2.550231072359718  -2277.315185510291 -8016.513173220099 -46.40244294056447  6149.198115791007 5884.757825595767 39.21322774404899  -10393.25488448188 937.7837931586894 28.06766025029606  2789.146113241053 -8921.53898182563 -4.902226469606006  3128.297023452981 5935.435444639501 -73.15592170765683  1656.035621427085 10821.25958997705 29.53759472655167  -7544.266973730268 7278.831893205581 -35.85413252596268  9871.069223867438 -5439.043443450157 -22.10781644071349  -200.9521495784218 3180.822857552295 -79.4346115475488  9129.588004563871 -5445.357303773124 23.47701919837735  -11230.02475052209 2646.84561337197 -1.348694189242215  -5991.96241881155 -9556.461834444326 -5.446483928817694  -3662.335902266266 -10334.09540454112 -56.74705863868915  10397.80198700393 4884.692735722399 -10.73950089580013  -2850.716326723808 6060.589068460318 -64.9159992338038  3545.752010799019 5489.722500683849 67.50042803584978  -4314.897343550577 911.4731843145012 81.60519235580847  -4332.235804323096 9923.553587951816 50.85114070648282  10040.55727654149 -5072.670120226614 35.26113122350644  -843.9165635123709 -11015.51804285254 -21.38362445136659  -8110.637197107884 3166.348630441324 38.10311343483193  -5595.386910316123 2713.943943452598 76.27285683135835  -3410.960425864851 9384.660039858885 28.8283846598398  -8190.999487066664 -7888.130460140055 -14.69721427003415  -7.324410809263 0.9279638797023735 0.7628514439990055  -4103.721760300145 -4851.266280421418 -1.84753813782402  6164.836797993771 1886.741613003753 -0.8598524082141876  -2471.134321014936 5094.437917391248 -16.70853066198454  4618.201065213714 -3610.558366480461 -12.654962282943  -3027.059233191005 528.0753160061557 35.06837511956675  -6348.50903130312 939.4734404042414 -3.670850277185773  1220.78864763668 5764.181132964786 14.46551402636437  4313.345626566242 -2845.115699702014 27.29070653735552  -3352.128452160156 -530.3991037859428 -31.70621966067591  3210.142474033252 4274.077185121457 -30.25995111261344  -1178.72443408198 -4881.411355202602 32.07830772126684  1044.048163237791 -7026.449751883372 -1.731254810513043  2551.869382166907 1868.663883109198 36.31078933603504  -1
[...]
<PointData  Scalars="Pressure"> 
<DataArray  type="Float64"  Name="Pressure"  format="ascii">-1.5173576215797756e-02  -1.5403688161974514e-02  -1.6181911427978347e-02  -1.5725448562740062e-02  -1.1846654214248178e-02  -6.5624542125413011e-03  -3.1440195921776104e-03  -6.5905075096993129e-03  -1.2207450836215387e-02  -1.6445589512885446e-02  -1.6663494507167198e-02  -1.6066407995049846e-02  -1.5526031029106312e-02  -4.8699917121927403e-03  -1.4626879525453947e-02  -9.1266310024030860e-03  -9.1771371881487918e-03  -1.6610305939179879e-02  -1.6425750333407509e-02  -1.4616713162106238e-02  -1.4893420536765109e-02  -1.1174144473040186e-02  -9.4495706459520514e-03  -4.8967790611463332e-03  -3.3992068036156793e-03  -1.3815232702783595e-03  -2.0151706608285179e-03  -6.7524085039879517e-03  -7.1059402449099723e-03  -1.2089562421289725e-02  -1.2771113658388511e-02  -6.7175117491610455e-03  -1.3952812349575907e-02  -1.1372823938857054e-02  -6.0361032329641741e-03  -1.5745527965968321e-02  -1.5113649299670738e-02  -1.4415522029427195e-02  -1.1021779533419828e-02  -4.4027836052254942e-03  -3.7922355837563411e-03  -1.0286371368135951e-02  -1.6041977094050097e-02  -1.4956597873840176e-02  -1.0764953628075299e-02  -8.4264608977182975e-03  -6.9337733165838840e-03  -1.6019951149578500e-02  -5.3862057452407786e-03  -6.2731893008616856e-03  -1.1649701164079941e-02  -7.1364819404155450e-03  -1.1687125285631995e-02  -6.8054173278090952e-03  -1.0464892857517205e-02  -5.1136222155434667e-03  -8.8418993902477892e-03  -3.6895789160588852e-03  -1.2275663488613014e-02  -6.3312902123455654e-03  -3.8300843513448400e-03  -6.1892263785092915e-03  -2.6858413910493127e-03  -4.2251065544434514e-03  -4.3769387053464578e-03  -1.0230870178923298e-02  -7.2875490165835886e-03  -6.6344296282007916e-03  -9.9086373026219445e-03  -1.2167703330127618e-02  -9.3699905644880066e-03  -1.2181156409061117e-02  -1.5634294203784614e-02  -9.9834359755719658e-03  -1.4430238207978084e-02  -1.1246174127925149e-02  -5.4014247802379794e-03  -1.4001729883769536e-02  -1.3954315378403052e-02  -1.4750915671999305e-02  -4.1866620741188177e-03  -1.5886635491006343e-02  -1.5541019793777375e-02  -1.4088039883809017e-02  -1.0365669009205707e-02  -1.0630733721937178e-02  -1.8472602928817684e-03  -1.6024627847292059e-02  -1.4676316424637417e-02  -1.4477344972679345e-02  -8.4872877915509772e-03  -1.6084589487492366e-02  -3.5259638104308240e-03  -5.8551679102373331e-03  -7.6956003838789229e-03  -1.0576351397376487e-02  -1.3533172104339164e-02  -1.5475068351569823e-02  -1.6215596544869260e-02  -1.4271892358990339e-02  -1.4658266258466061e-02  -6.2255820142612843e-03  -1.6772180974559792e-02  -1.5360981845542326e-02  -8.0513852280243142e-03  -1.5684801688781957e-02  -1.2443891791882185e-02  -1.6466451507704909e-02  -1.3528142267268058e-02  -9.1969025536253347e-03  -3.5638087857842561e-03  -3.1333783685595692e-03  -1.5622374755732691e-02  -1.3725755860476765e-02  -6.5245033544667772e-03  -1.3617090667832704e-02  -6.1203737034226059e-03  -1.0311746308345178e-02  -1.6205740529902420e-02  -3.8779291098028123e-03  -1.4971105939507514e-02  -3.7556042866677885e-03  -5.5763531706484277e-03  -2.3362070436495665e-03  -6.2048806640483721e-03  -3.2397774627147304e-03  -5.0436194987016052e-03  -1.6048300802070283e-02  -1.5499625495289167e-02  -1.6921566751379669e-02  -3.8162761220848274e-03  -3.1732568665082503e-03  -1.1499287093588384e-02  -3.3517210210384776e-03  -1.5691030506061045e-02  -3.3651796300255971e-03  -1.5404609365960800e-02  -1.5601911688761896e-02  -1.0513785006829819e-02  -1.2647900894943404e-02  -1.6534680709593463e-02  -6.0401926857273922e-03  -1.0690982727736800e-02  -6.6613904581019588e-03  -1.6307741766021941e-02  -1.1116241554411432e-02  -3.1722419259499813e-03  -3.5006274272753675e-03  -3.4858553803780276e-03  -3.5544348516515036e-03  -1.6379012304856333e-02  -1.5374708210191823e-02  -1.5880149096992893e-02  -6.8884783879955497e-03  -7.5265258228228759e-03  -2.5315283987390950e-03  -1.4966362791349937e-02  -1.6388202921051920e-02  -1.0978794642515208e-02  -5.4476090258308704e-03  3.4195641743796422e-03  1.0060941754646648e-03  1.5084752739880523e-04  -2.9258461930052528e-04  5.6123042839910636e-04  -3.9100659071643589e-04  1.0301882296371405e-03  2.8917642649587305e-04  1.3289122029288479e-04  -5.2696880741322672e-04  -1.1744198817002767e-03  -1.5934947280800702e-03  7.6573447178837945e-05  -1.6891320176512503e-03  -1.9159203970855062e-03  -1.7842729061228995e-03  -3.5864995135371651e-04  -1.6422873870624256e-03  -2.2276119646729084e-03  -3.7171850706727520e-03  5.8229870507882528e-05  -2.4912001239836175e-03  -2.8603634433180394e-04  -2.4434135670469504e-03  -2.9103286796008796e-04  -4.0801491793651312e-03  -1.5893742298013886e-03  -2.8769506985190838e-03  -1.0436391044315674e-03  -3.0938908736874572e-03  -4.2966786497446400e-03  -1.2051271780037195e-03  -1.1101307777688140e-03  -3.1397154887590076e-03  -1.0920000370498275e-03  -3.0244033523685308e-03  -3.7025097469708192e-04  -5.1055683847436488e-03  -2.4205290756255876e-03  2.5093740590675742e-03  2.5335007242304540e-03  </DataArray> 
</PointData> 
</Piece>
</UnstructuredGrid>
</VTKFile>