<?xml version="1.0"?>
<VTKFile type="UnstructuredGrid"  version="0.1"  >
<UnstructuredGrid>
<Piece  NumberOfPoints="201" NumberOfCells="657">
<Points>
<DataArray  type="Float64"  NumberOfComponents="3"  format="ascii">-1.036354070732065 -0.4851988820064306 760.3806312320564  -0.5101867058033143 -0.08587183029620128 -761.3037800360916  1957.97654189783 -0.4718396007705012 -735.5353558412847  3694.301032024272 -1.280415966334568 -651.4636291808587  5027.085730794261 -1.470826792365797 -505.141513219292  5854.44419910492 -1.671748055593625 -276.430160053957  6134.799168441545 -2.359447519869696 0.4314504985382208  5854.780890274741 -2.53063712911174 276.2195229536155  5026.98843463862 -1.823565598269431 504.3723455575559  3693.951227913596 -1.428412726816742 651.8419114542597  1958.083219594388 -0.05328035826293781 734.2374777564507  2468.237774110871 -1827.36552778537 -690.2798829591296  2457.281735115267 1419.2599182048 700.8388834354212  5844.529139064471 -1584.810490901194 -134.5540268312517  4274.991601165953 -1755.229664449368 561.1403028805702  5347.061451013935 1609.521873389543 372.473624642406  5326.656774129223 1607.888695763539 -378.0615509567411  2754.832104875966 1632.76106502209 -683.1754775345275  953.7063201128792 -1643.439990130036 735.3918974360682  4249.233377390708 -1618.907215718272 -570.3394369092656  2960.659086850772 -3179.519529077014 -585.6916459544161  4359.968807448786 -3086.363550037849 -423.2400902454364  2985.859059520617 -4408.242430465438 -409.0735827635118  4182.133400382418 -4109.786660544907 -207.2367447139917  2622.782906686578 -5213.793628113145 -176.2341586765618  3729.61896772704 -4670.8184283967 45.10751435697966  1958.070677689234 -5565.408461649924 80.19522360406899  2852.52453277075 -4852.179432827043 301.751569810364  1027.684849727184 -5442.40146504634 318.9370728164414  1841.488907838983 -4476.556141073513 507.459711608805  -72.89984208745391 -4808.552369754673 507.9895702338802  4372.225798179166 -3807.134751175573 254.9179476047583  4251.765792770724 1615.755888890768 570.2033476065515  4275.643421276881 3105.67352437949 437.4858581168784  5137.240587153219 2952.882277559706 204.5141940892805  694.4333368599495 -3609.973409710776 641.3360650547356  2543.799209406583 -3157.771669106326 613.428652699438  2965.216329679824 2999.115046915968 600.9766472750314  2830.3558158432 4345.595243529793 441.7924272771832  5856.617366117468 -1546.66259562403 134.9399008008508  5161.584975369298 -3190.283460740061 16.048909554946  5359.582136776183 -1613.555513888642 -367.9927480359191  954.7720058569071 1643.122241640962 -734.3361861027613  4210.796445328602 1577.226204180206 -577.1170008253207  4242.841432936226 3089.828059740313 -445.2608415648519  1277.760484245682 -5286.997256235332 -357.3417071564412  -897.0687154232658 -5505.884417627975 303.0022405263792  1270.560594891629 -3280.723772378517 -655.3905130147335  5103.437504779477 2990.439273232076 -211.3881415565163  3820.1767671029 4322.802575509248 -254.0230662561538  2735.667863509909 4242.76748008793 -472.1279109967139  2144.078296728333 5246.022335189855 -272.1352273555009  954.9734750540352 4961.11434293748 -460.7066554506487  277.3352657511083 5677.164523427798 -247.5630752478622  -974.7763695957108 5098.588595241054 -427.2878886837548  -1597.456609690003 5568.291288332027 -188.1108443012176  -2826.952480130969 4773.897166487864 -334.8370469127782  -306.9039517009652 5888.224955382915 17.18294637938744  -1984.236938420777 -4612.930489835626 472.0100491143015  -2716.618031808989 -5058.21325046026 243.3237884932186  -3303.473116850277 4936.730899408827 -92.87821115388221  -4370.474531952752 3871.099642402276 -232.6238674161163  -4642.931267454196 3851.378670059725 20.96233686805575  -5454.239131656864 2542.459443576458 -146.2623937351457  -5527.248198810037 2413.110398799508 135.3676794439728  -4876.087078320499 2427.055289608794 -403.6411289761616  -4482.875882096459 3578.184838740831 290.4230605117335  -5778.995927402209 1059.338675855466 -263.1566412457788  -5137.164458604816 1996.927589191974 389.2897715157808  -4967.549743997713 688.0184824537118 -506.2094170014003  -5541.313415451037 -769.3091784861905 -371.8232715986172  -3846.828744595937 3028.877571281224 512.7137118640875  -873.8343453714352 -2515.050454788146 704.3212604910246  -3727.444029619353 -3930.233074923751 391.6534759181103  -4482.112632402833 -1051.984727980748 -565.2206756943737  -4802.662967988739 -2451.277329137081 -417.7771551345949  -5906.819898891193 673.4049079563506 227.6183072620147  -2084.534986948899 3997.093752106393 -560.5253485959568  -4272.931837478356 1300.44592504526 582.4325984774327  1346.411436359815 4046.574168903763 588.5025092997527  -5683.500475578365 -1992.707474171568 -154.4635291255369  -3657.02393959439 425.1345265580402 -654.0936782374183  -2847.908080072608 2330.390214298953 649.1415734017778  -3494.854876668241 -2663.2856706242 -584.6211886120584  -3625.951659811596 -3926.645260677987 -410.6891137867829  -3051.609105163652 4422.979560175545 395.6160028796742  -1549.172622674469 -5694.518206609429 58.8470090045442  -3012.653534114239 394.2311653453929 691.7291024981748  -4409.306877186971 -561.0811379246777 584.9262731820668  -2110.478022212507 -3971.331980204264 -560.8360860625593  -2096.848873905759 -5012.795090903855 -366.5593950655421  -1837.750696387326 -2541.56870967295 -683.6825487610859  3115.324918980369 5076.354881596643 -25.66013864036361  -4192.560917894549 -4189.278713910325 159.7019608712405  -5056.151441049562 -2834.23976108805 278.0481151313327  1109.236815135318 5157.330794037871 406.552321094809  -402.5356984005239 4680.283804174498 525.1187098357411  -139.8725629455482 3559.562784405916 653.2512238218342  -1713.99229540705 1516.376748505312 724.0222568212562  -2824.819527683973 -3250.189644616451 589.8727532506047  1475.844329834033 3958.972180385545 -592.8015598075212  -3448.17754536476 -4720.248612806722 -196.8511931737311  -465.021022194321 3061.205655043588 -682.4723871735395  -1040.195089554663 1320.576872508931 -741.6781072782882  -685.4746569908291 5532.770361598409 302.2725596814681  -1340.034973612086 -936.4118147923311 741.4886805199212  -450.2705522558285 -4891.960999891387 -488.3701884059133  -2875.506790202683 -1491.007669273715 681.7186740595309  -4375.561690157492 -2369.839731766268 503.6984017085825  -5411.814305092706 -1130.946521205244 391.3120265940035  -5881.826324251459 -1459.177247176129 127.6896517346364  -6107.832930463875 -187.9651938304677 -79.44030970633827  -2414.969722799414 2594.958437800354 -658.7073577149705  -3632.5437041316 2846.165233115601 -555.9781075357217  -527.5811336150742 -5573.73386109199 -292.0800615985472  -211.2292845759922 4428.899268648874 -565.3616734664919  2455.153211866223 5194.034494484631 234.3206789492336  5326.019816372148 -1541.826202075345 383.3244296023947  314.5322727872724 -1724.769217062632 -737.4234570771806  969.9562712841969 -5757.381206137613 -139.6321384086894  -1902.118345074355 3837.756464424552 587.430030287674  5869.866573012975 1482.45970869465 -137.4611851518372  3931.282516172413 4281.385848653101 232.1692236436958  4626.155132734302 3870.159932090813 -10.34108143150177  -4697.652649890306 -3510.809267049806 -226.8284928208998  -2033.540291528714 5546.966919368442 70.73397497268405  -3414.775206720649 4787.182413975192 165.3799311437648  -341.7021381578357 -3689.216128882092 -639.7370431520758  -1478.061854501641 -679.0019290407438 -743.5097933141001  -3095.012736498998 -1081.608845676257 -678.9145891804374  1419.01855365977 5730.759878730871 -46.94615151962014  163.2542705379336 -5861.525837536986 100.9529571309842  3424.353038081954 -3766.623797869839 470.1669348372898  5879.035743359321 1501.742552966451 121.9609626228063  2754.66288777644 -1622.308033660499 684.6077896263918  -5192.649685201321 -3140.53453855734 22.27848540236623  -1122.101578631054 -3967.532519233364 602.553522918855  3049.121668971574 2908.038676744276 -600.7484372245806  -5305.035424338211 476.7295714759195 443.9469915648911  1396.424176553851 -4456.786367776121 -533.4076549525063  1543.485178240679 2905.621859259318 672.8441083571472  876.271816539944 5712.350606190855 189.2078789316701  -3848.652103969711 3727.521805701228 -411.0553002982201  5146.040701884235 -2848.741356756638 -234.3259780618121  -96.90663180533741 1584.273715260307 740.333760784588  4683.731090142579 -2788.91025641867 398.2504061603208  -5955.606989655271 1407.399592727383 -20.89725023629386  -3174.018692077241 -5048.925446725887 7.948099650333916  -1941.182888596933 -5514.15483932171 -150.61116032993  5506.923829651668 2601.587608070725 -6.794526646342165  -1404.546486995925 2980.719566144264 672.9341535759864  1751.163178129251 2705.95665691964 -678.9642803969532  -2134.259507159602 448.5333838100931 -728.2868748841471  -2252.524865686413 5179.302230920813 283.9640690610137  5234.335565401807 -2651.078864004875 246.7219152662521  -422.3304007067275 -5857.331544369461 -90.91799799308959  -4011.29141236465 1564.031975176865 -597.3421258999614  -2762.517583348497 1339.237997694975 -691.61175819904  -1733.319684589848 4791.683079057688 454.6576018400393  -4318.205962349965 -4179.15151735574 -50.56989466585932  0.0002546673210264892 0.2178894661087512 -0.09609092074349039  -2015.876526656313 -2376.206106485804 21.36897255764926  3046.208192658806 925.9209638427586 -3.666211460375715  -1215.301682712755 2501.552267662837 173.0509251581767  2273.288573616898 -1773.945481215602 157.4053081152568  -1490.085385476266 261.3427507192384 -341.0222478194551  -3133.271741704797 471.9275904780345 -0.05852193086646304  600.9456602604362 2827.905552313156 -150.8888191636797  2122.600478859835 -1396.647119939459 -233.3099275469184  -1655.967963002237 -265.2018736126916 332.0093148955067  1583.4169065118 2105.175623385635 272.6258743242931  -584.8042929386786 -2404.972390915444 -295.3010915693809  518.6808764472549 -3456.283885287612 1.383964881049497  1264.393982158441 924.7173612508335 -380.39240
[...]
<PointData  Vectors="Velocity"> 
<DataArray  type="Float64"  Name="Velocity"  NumberOfComponents="3" format="ascii">-4.5337679658405636e-06 -2.1226135067403452e-06 -8.2953330729469894e-04  -2.2319284583264146e-06 -3.7566596625619306e-07 8.2549478166563410e-04  7.9238947791061029e-04 -2.0641702748121475e-06 7.3481590545997153e-04  1.3760089495687929e-03 -5.6014725614114695e-06 5.1229174311654606e-04  1.6415645304792379e-03 -6.4344682795623399e-06 2.3297389012500317e-04  1.6880732224942633e-03 -7.3134443096691262e-06 7.4965284787157626e-05  1.6833919916282875e-03 -1.0321942938961836e-05 1.8874789074134528e-06  1.6895461550404316e-03 -1.1070851047093440e-05 -7.5886764969377907e-05  1.6411388861882490e-03 -7.9776048809213774e-06 -2.3633879002130198e-04  1.3744786514630542e-03 -6.2489182468883139e-06 -5.1063686077311779e-04  7.9285616389850825e-04 -2.3308711599719500e-07 -7.4049377005351612e-04  9.4989651711182145e-04 -6.7519022880851455e-04 5.9344262419903633e-04  9.6611827577554343e-04 5.2367355713874302e-04 -6.3703625488013360e-04  1.6247658801884855e-03 -4.1781238929900817e-04 2.7454731581278855e-05  1.4628558002822078e-03 -5.6903938035689845e-04 -3.1627602463313369e-04  1.6140979007668382e-03 4.5148062013293755e-04 -1.1803463071211265e-04  1.6153758647540570e-03 4.4441160243732162e-04 1.2406831234144738e-04  1.0552024711272397e-03 5.9179340328265636e-04 5.7696975068103847e-04  3.8309121100927159e-04 -6.3851080415374035e-04 -7.3544349707227289e-04  1.4618854248445324e-03 -5.3118657019716965e-04 3.3465707845498684e-04  1.0300603663221243e-03 -1.0560226854577489e-03 3.6210256128095921e-04  1.3597921533807249e-03 -9.0358999448421546e-04 1.6254158156576642e-04  9.1612471933104095e-04 -1.2756080923627916e-03 1.4492849576365558e-04  1.1817122155820645e-03 -1.0776856177579757e-03 4.6078030600109023e-05  7.3537879038285722e-04 -1.3678265234889123e-03 3.8253941030466544e-05  1.0256243707648398e-03 -1.1914384758952123e-03 -7.3709021396311787e-06  5.3446248681547018e-04 -1.4396443215321814e-03 -1.8491378327484212e-05  8.2935366162443722e-04 -1.3255185930623572e-03 -8.1018877125259552e-05  2.9930777159627674e-04 -1.5079883389102202e-03 -9.4638325282204002e-05  6.0075618776738967e-04 -1.3929088465332966e-03 -2.4164760340679558e-04  -2.9230270772184818e-05 -1.4961320027567875e-03 -2.4407518346479385e-04  1.2616604816082057e-03 -1.0210480151640463e-03 -6.7203997692887331e-05  1.4729640552628325e-03 5.1740037007657908e-04 -3.3525243224374619e-04  1.3507056997077590e-03 9.0494246098872153e-04 -1.6925708362908765e-04  1.4577011762088056e-03 7.6606466713972086e-04 -4.8153217615251914e-05  2.4916076964943815e-04 -1.2738604420806676e-03 -4.9338316092994994e-04  9.1606591588487183e-04 -1.0826996579735969e-03 -4.2705580712069653e-04  1.0512580106620444e-03 9.9985183432513302e-04 -3.8568775831827510e-04  8.9536088778880405e-04 1.2798214535209857e-03 -1.7896193747265457e-04  1.6318095087931831e-03 -4.0969965297620839e-04 -2.5688348278965647e-05  1.4295803482562617e-03 -8.2082941493732801e-04 -1.1275898644166643e-06  1.6206415035501171e-03 -4.6324837070322959e-04 1.2047788010889910e-04  3.8775329708889088e-04 6.3712074069533322e-04 7.4006194781138718e-04  1.4642205892320755e-03 5.1318176119288913e-04 3.4377604330239602e-04  1.3400156837864614e-03 9.0386530647417016e-04 1.7704928857453688e-04  3.7850999182262107e-04 -1.4935522489228231e-03 1.1476272082456212e-04  -2.7849003905112941e-04 -1.5208021146362201e-03 -8.4919640888963133e-05  4.7226370624413945e-04 -1.1687820068091573e-03 5.2013688554926405e-04  1.4534292295509405e-03 7.8547877098249024e-04 4.9594554108006488e-05  1.1035531268751102e-03 1.1464028014927796e-03 6.1514185257663981e-05  8.8487195483559272e-04 1.2716349813993398e-03 2.0637897874254893e-04  6.2971512717913071e-04 1.4182888324763591e-03 7.3889971657203221e-05  3.1208110708581393e-04 1.4850917941704026e-03 1.9521970665247054e-04  8.1640218101690433e-05 1.5255064668525970e-03 6.4352804570107596e-05  -3.0158897063703628e-04 1.5024203765578148e-03 1.7141044178276100e-04  -4.4948647586658336e-04 1.4662122555300563e-03 4.2388636128128886e-05  -8.4308972378700808e-04 1.3324392506413340e-03 9.9280631775057709e-05  -8.4933314671152641e-05 1.5141410410244830e-03 -1.4535004778054441e-06  -6.4657666683967533e-04 -1.3961405881823337e-03 -2.0933409186315853e-04  -7.8728656659891720e-04 -1.3554575475888053e-03 -6.1421377192851911e-05  -9.2099185250630689e-04 1.2783857355249957e-03 1.6361819168573179e-05  -1.2460082848133702e-03 1.0413950395824730e-03 5.4984501855822755e-05  -1.2725808202882233e-03 9.9041833643841322e-04 -4.2842459999362544e-06  -1.5273686099168313e-03 6.5959390187337826e-04 3.0637149779247698e-05  -1.5406376650482646e-03 6.2528614270938984e-04 -3.3414738299673129e-05  -1.4909301982886311e-03 7.0064285016380732e-04 1.4345116037456297e-04  -1.3027819684264786e-03 9.7899843157424576e-04 -7.5880128448464591e-05  -1.6542039737032842e-03 2.9693300831569133e-04 6.6383179737657854e-05  -1.5591550187178187e-03 5.7179693429823585e-04 -1.3522623975673333e-04  -1.6197002551869265e-03 2.2545894888907178e-04 2.3573291619763791e-04  -1.6572628687685509e-03 -2.1536685891287131e-04 1.2224635120327058e-04  -1.2699853753566992e-03 9.4377470336732573e-04 -2.5235922250133074e-04  -3.4822437280798593e-04 -9.4289811604763652e-04 -6.5745447195253860e-04  -1.1511766653924606e-03 -1.1293143574539887e-03 -1.4172689394911239e-04  -1.5353586693468383e-03 -3.3478030438340944e-04 3.2427576756983105e-04  -1.4850918464925473e-03 -7.0779162788073941e-04 1.5387653239475844e-04  -1.6710761267307972e-03 1.9330413906567805e-04 -5.5057997411912799e-05  -7.1013627133792163e-04 1.2935801360121311e-03 3.1545946994755573e-04  -1.4838391394055258e-03 4.3397508933996665e-04 -3.4668588383595490e-04  4.8036578360291504e-04 1.3406763119133550e-03 -3.6305818337218466e-04  -1.5759513888092588e-03 -5.1265901489640361e-04 2.8643714188181559e-05  -1.3562033148644455e-03 1.5542806608315028e-04 5.0524004479058715e-04  -1.0511807154981263e-03 8.3065658572967346e-04 -4.9946484069748106e-04  -1.2187657596603701e-03 -8.7635952817891223e-04 3.5219802590521880e-04  -1.1296855413165485e-03 -1.1350608978255346e-03 1.5431834240169030e-04  -9.3355209941729594e-04 1.2836614923240517e-03 -1.4052824265824368e-04  -4.3742858478368931e-04 -1.4679942294299735e-03 -9.9626325488990281e-06  -1.1655922883387080e-03 1.4797788526287224e-04 -6.1523995639126681e-04  -1.5377104398078055e-03 -1.7671768564527494e-04 -3.5971857376665927e-04  -7.2887093528860520e-04 -1.2845359016843874e-03 3.2389169777746095e-04  -6.4100982682553686e-04 -1.4187035200144645e-03 1.1654126648893958e-04  -7.1187273497572113e-04 -9.3057077166841193e-04 5.8193175970899173e-04  8.7465836285895897e-04 1.2914067209443504e-03 4.9861310166228109e-06  -1.1893393594407944e-03 -1.0961556129809001e-03 -3.8071782432253199e-05  -1.4668189966734778e-03 -7.6205911200241043e-04 -7.2723088244331399e-05  3.4781900683869695e-04 1.4959786558112471e-03 -1.4912291522680440e-04  -1.3485002434778082e-04 1.4756765684798671e-03 -2.7640898596381321e-04  -4.8569148808185042e-05 1.2559278788567747e-03 -4.9758130828565881e-04  -6.8403228040158975e-04 5.8516154618020962e-04 -6.9690387647065172e-04  -9.9378581733791465e-04 -1.0811540695595423e-03 -3.6737609669687218e-04  5.2507524911273669e-04 1.3233355546859037e-03 3.7564713641194804e-04  -9.8557352374123788e-04 -1.2532166620251785e-03 4.5830468438013090e-05  -1.7160511813429425e-04 1.1205681225859858e-03 5.8724308694308629e-04  -4.2290574546791196e-04 5.1562403314302284e-04 7.5486889886452210e-04  -1.9977259123888971e-04 1.5255501479288739e-03 -8.7889559251710098e-05  -5.4764888811060012e-04 -3.7247181983472743e-04 -7.6803500643306136e-04  -1.5208189574969296e-04 -1.5055603155209412e-03 2.2666152890384243e-04  -1.0962253840789327e-03 -5.3796980884064454e-04 -5.7059191412458209e-04  -1.4387416466985971e-03 -7.3259572291033354e-04 -2.4544521063916876e-04  -1.6357193513088933e-03 -3.1659695214962487e-04 -1.2789397421851271e-04  -1.6169612049553852e-03 -3.7159296240124611e-04 -2.4532949038531689e-05  -1.6736060169102239e-03 -4.0326728840518618e-05 1.3485307221205792e-05  -9.0367066880511543e-04 9.2604563622131284e-04 5.1530556675954541e-04  -1.2383892289463256e-03 9.1857958814887616e-04 3.0900216978326878e-04  -1.6887363736803283e-04 -1.5323306145659256e-03 8.1542631732281043e-05  -6.8370708120763955e-05 1.4366373062617824e-03 3.2381634254368010e-04  7.0987005724551630e-04 1.3777912810861413e-03 -5.9807306220514242e-05  1.6198447498849131e-03 -4.4084586552421549e-04 -1.3348901819504251e-04  1.1910648980261049e-04 -6.7026924139158199e-04 7.5445421652091242e-04  2.6713822266044638e-04 -1.5056600996490141e-03 2.8967878557364590e-05  -6.6140863267599563e-04 1.2808595703508064e-03 -3.6680657740003237e-04  1.6332723599995450e-03 3.7671954071674061e-04 2.7871871409993383e-05  1.1267553286352118e-03 1.1265776084405236e-03 -5.3154816006681042e-05  1.2787978057053873e-03 9.7652914481129204e-04 2.2571762593836535e-06  -1.3457585786797860e-03 -9.2967399952835689e-04 5.8373637516790225e-05  -5.6188816659381586e-04 1.4361475852946611e-03 -1.3957333727320125e-05  -9.5622950021006018e-04 1.2538968057937664e-03 -3.6520059459042110e-05  -1.3059232984804445e-04 -1.2962223184451057e-03 4.8252157526445903e-04  -6.0445884390818768e-04 -2.6124003012154289e-04 7.6223444629931769e-04  -1.1824586733348535e-03 -3.8368127111581732e-04 5.7252951198741775e-04  3.9652903446509447e-04 1.4801391923683802e-03 6.8513797952303962e-06  3.3204337872909280e-05 -1.5220446979788724e-03 -1.9995644986230780e-05  1.0904037332242875e-03 -1.1381284337652613e-03 -2.0394194698595121e-04  1.6308508254783162e-03 3.8292754971994884e-04 -2.4922933983653377e-05  1.0482713927675497e-03 -5.9321946250720883e-04 -5.7271118622751502e-04  -1.4406978523130581e-03 -7.9946405789934358e-04 -5.1470960896379801e-06  -4.0636166369326549e-04 -1.3386743160581844e-03 -3.9732710654329399e-04  1.0831078561040239e-03 9.7136025670929444e-04 3.9290210545534708e-04  -1.6558495351794379e-03 1.5040128518170070e-04 -1.7521309429701479e-04  4.6201392223071356e-04 -1.4182830115227272e-03 2.7901563991746708e-04  5.9086439844642979e-04 1.0527878124565789e-03 -5.5699769488505666e-04  2.4993499941293115e-04 1.5053889344052640e-03 -4.5340032375096828e-05  -1.1921374116454931e-03 1.0869532024149707e-03 1.5214926402230778e-04  1.4756935045234212e-03 -7.5997289334352864e-04 6.0975404231981545e-05  -3.9007648431399986e-05 6.1619537580760687e-04 -7.7371386048024975e-04  1.4359424875717494e-03 -8.1125211128596833e-04 -1.4487168604173273e-04  -1.6309304536836465e-03 3.7078026316846177e-04 3.1078186206880765e-06  -8.8330773023710869e-04 -1.3042524298269033e-03 -5.3077401517260475e-06  -5.5179916437200663e-04 -1.4383696694983854e-03 2.9583582846403991e-05  1.5245908464224288e-03 6.5596169663065273e-04 -8.0855624978980018e-07  -5.2993376595749904e-04 1.0787665141295266e-03 -5.5180346270536698e-04  6.7425278760668578e-04 9.7569811414099819e-04 5.6283123934648292e-04  -8.5624932778577997e-04 1.7869061475305330e-04 7.1469764865914531e-04  -6.5734469178454211e-04 1.4156969395880876e-03 -7.7734848201647765e-05  1.5036503997009555e-03 -7.1359113480139885e-04 -6.3519986327445526e-05  -1.3418015203042150e-04 -1.5237795396254095e-03 1.9399848228935965e-05  -1.4160938832642794e-03 5.3066089223013078e-04 3.8698288935172596e-04  -1.0599675218172966e-03 4.9496366061420197e-04 5.9532254355326329e-04  -5.4871629769112629e-04 1.4301722244721207e-03 -1.8901193135827284e-04  -1.2032137319770771e-03 -1.0724744179427324e-03 1.1217032567798621e-05  1.1141004569394587e-09 9.5320731535345901e-07 -4.2037171520614418e-07  -7.9776644700458330e-04 -8.9575506943756510e-04 -2.1637420475742077e-05  1.1973676310509582e-03 3.4603929733941657e-04 2.9601864156872567e-06  -4.8473896423015023e-04 9.5865898477584673e-04 -1.5853239382383429e-04  9.0436913061695890e-04 -6.8233062567888835e-04 -1.4436483372501789e-04  -6.2881969527492495e-04 1.0722709891479009e-04 3.5866697193431157e-04  -1.2324469764833934e-03 1.7905620658346889e-04 -1.7868586644984869e-06  2.4566548812321020e-04 1.0770155777751918e-03 1.3493517936941283e-04  8.6027065523040563e-04 -5.4428057334519040e-04 2.2439061911346735e-04  -6.9058001092346666e-04 -1.0266864149523947e-04 -3.4240026240334143e-04  6.4236706760484677e-04 8.0575623960467261e-04 -2.5455155541994007e-04  -2.3762336528344624e-04 -9.3075782237984678e-04 2.8019697621062614e-04  1.9326313723173425e-04 -1.2693137121704786e-03 -1.6330879783200363e-06  5.2750842944482073e-04 3.6706929308334533e-04 3.9625659452833379e-04  -1.9959794996899020e-04 -1.0337155483533679e-03 -2.7194798061744849e-04  4.6627917105967960e-04 -1.3171543600537313e-04 -4.3312638967862963e-04  -8.2419625077908220e-04 9.7765961479593213e-04 1.2411186494511181e-04  -1.2175619479367213e-03 -4.5612892620152800e-04 1.8692788794366617e-04  1.2498588701763088e-03 5.5032310319132374e-05 -2.4823965219007883e-04  -1.7840306969088950e-04 6.5134775888241539e-04 -4.4548724938070613e-04  2.4954736091413866e-04 1.3195890350207089e-03 -8.6467748985062133e-05  1.0397314632813130e-03 7.9313201050880183e-04 1.9628879480878793e-04  9.9120266070505691e-04 1.0642247535049641e-03 -1.8056952052493541e-05  -1.1950014707510044e-03 5.1993033657070700e-04 -2.2521968404597820e-04  1.4131243148962137e-03 -4.1293081898202563e-04 3.2502715906526906e-05  -3.0180598481427227e-04 9.3516815966725305e-04 3.6695573522758050e-04  -1.3716084721106005e-03 -4.4639534483557398e-04 -1.3362140350312458e-04  1.3717630593420276e-03 7.1406891056487060e-05 2.1165515992536857e-04  9.7321696453549623e-04 -1.0587309120083746e-03 4.8207743483053552e-05  -1.2999081561278541e-03 4.1385710557654512e-04 2.1498405703710875e-04  3.2453259836444170e-04 -4.7887025636946358e-04 4.8554954070197055e-04  -4.6033424478158022e-04 -1.3271528964344619e-03 9.6763269622154784e-05  -4.3765219857116712e-04 -1.3702925490899447e-03 -8.7457112308553949e-05  5.2341764422823823e-04 -1.2543074317095855e-03 -1.8540248258492334e-04  -1.1064578687095398e-03 1.0238162080525787e-03 -6.8307165596631292e-05  4.4705274342908872e-04 -1.2384956135006590e-03 2.0071486714865144e-04  -3.0674491255372157e-04 1.3937207258952976e-03 3.8924837457425857e-05  -8.3392784258563054e-04 -5.8501339370322183e-04 4.1282328341246156e-04  1.3117026805383109e-03 6.7869512118278244e-04 -1.4479898926436885e-04  1.9005761932280779e-04 7.3113343866300395e-04 -6.1439798563012665e-05  5.6954317284659331e-04 3.9564645716280255e-04 1.3907488894131817e-04  </DataArray> 
</PointData> 
</Piece>
</UnstructuredGrid>
</VTKFile>