<?xml version="1.0"?>
<VTKFile type="UnstructuredGrid"  version="0.1"  >
<UnstructuredGrid>
<Piece  NumberOfPoints="201" NumberOfCells="657">
<Points>
<DataArray  type="Float64"  NumberOfComponents="3"  format="ascii">-1.036354070732065 -0.4851988820064306 760.3806312320564  -0.5101867058033143 -0.08587183029620128 -761.3037800360916  1957.97654189783 -0.4718396007705012 -735.5353558412847  3694.301032024272 -1.280415966334568 -651.4636291808587  5027.085730794261 -1.470826792365797 -505.141513219292  5854.44419910492 -1.671748055593625 -276.430160053957  6134.799168441545 -2.359447519869696 0.4314504985382208  5854.780890274741 -2.53063712911174 276.2195229536155  5026.98843463862 -1.823565598269431 504.3723455575559  3693.951227913596 -1.428412726816742 651.8419114542597  1958.083219594388 -0.05328035826293781 734.2374777564507  2468.237774110871 -1827.36552778537 -690.2798829591296  2457.281735115267 1419.2599182048 700.8388834354212  5844.529139064471 -1584.810490901194 -134.5540268312517  4274.991601165953 -1755.229664449368 561.1403028805702  5347.061451013935 1609.521873389543 372.473624642406  5326.656774129223 1607.888695763539 -378.0615509567411  2754.832104875966 1632.76106502209 -683.1754775345275  953.7063201128792 -1643.439990130036 735.3918974360682  4249.233377390708 -1618.907215718272 -570.3394369092656  2960.659086850772 -3179.519529077014 -585.6916459544161  4359.968807448786 -3086.363550037849 -423.2400902454364  2985.859059520617 -4408.242430465438 -409.0735827635118  4182.133400382418 -4109.786660544907 -207.2367447139917  2622.782906686578 -5213.793628113145 -176.2341586765618  3729.61896772704 -4670.8184283967 45.10751435697966  1958.070677689234 -5565.408461649924 80.19522360406899  2852.52453277075 -4852.179432827043 301.751569810364  1027.684849727184 -5442.40146504634 318.9370728164414  1841.488907838983 -4476.556141073513 507.459711608805  -72.89984208745391 -4808.552369754673 507.9895702338802  4372.225798179166 -3807.134751175573 254.9179476047583  4251.765792770724 1615.755888890768 570.2033476065515  4275.643421276881 3105.67352437949 437.4858581168784  5137.240587153219 2952.882277559706 204.5141940892805  694.4333368599495 -3609.973409710776 641.3360650547356  2543.799209406583 -3157.771669106326 613.428652699438  2965.216329679824 2999.115046915968 600.9766472750314  2830.3558158432 4345.595243529793 441.7924272771832  5856.617366117468 -1546.66259562403 134.9399008008508  5161.584975369298 -3190.283460740061 16.048909554946  5359.582136776183 -1613.555513888642 -367.9927480359191  954.7720058569071 1643.122241640962 -734.3361861027613  4210.796445328602 1577.226204180206 -577.1170008253207  4242.841432936226 3089.828059740313 -445.2608415648519  1277.760484245682 -5286.997256235332 -357.3417071564412  -897.0687154232658 -5505.884417627975 303.0022405263792  1270.560594891629 -3280.723772378517 -655.3905130147335  5103.437504779477 2990.439273232076 -211.3881415565163  3820.1767671029 4322.802575509248 -254.0230662561538  2735.667863509909 4242.76748008793 -472.1279109967139  2144.078296728333 5246.022335189855 -272.1352273555009  954.9734750540352 4961.11434293748 -460.7066554506487  277.3352657511083 5677.164523427798 -247.5630752478622  -974.7763695957108 5098.588595241054 -427.2878886837548  -1597.456609690003 5568.291288332027 -188.1108443012176  -2826.952480130969 4773.897166487864 -334.8370469127782  -306.9039517009652 5888.224955382915 17.18294637938744  -1984.236938420777 -4612.930489835626 472.0100491143015  -2716.618031808989 -5058.21325046026 243.3237884932186  -3303.473116850277 4936.730899408827 -92.87821115388221  -4370.474531952752 3871.099642402276 -232.6238674161163  -4642.931267454196 3851.378670059725 20.96233686805575  -5454.239131656864 2542.459443576458 -146.2623937351457  -5527.248198810037 2413.110398799508 135.3676794439728  -4876.087078320499 2427.055289608794 -403.6411289761616  -4482.875882096459 3578.184838740831 290.4230605117335  -5778.995927402209 1059.338675855466 -263.1566412457788  -5137.164458604816 1996.927589191974 389.2897715157808  -4967.549743997713 688.0184824537118 -506.2094170014003  -5541.313415451037 -769.3091784861905 -371.8232715986172  -3846.828744595937 3028.877571281224 512.7137118640875  -873.8343453714352 -2515.050454788146 704.3212604910246  -3727.444029619353 -3930.233074923751 391.6534759181103  -4482.112632402833 -1051.984727980748 -565.2206756943737  -4802.662967988739 -2451.277329137081 -417.7771551345949  -5906.819898891193 673.4049079563506 227.6183072620147  -2084.534986948899 3997.093752106393 -560.5253485959568  -4272.931837478356 1300.44592504526 582.4325984774327  1346.411436359815 4046.574168903763 588.5025092997527  -5683.500475578365 -1992.707474171568 -154.4635291255369  -3657.02393959439 425.1345265580402 -654.0936782374183  -2847.908080072608 2330.390214298953 649.1415734017778  -3494.854876668241 -2663.2856706242 -584.6211886120584  -3625.951659811596 -3926.645260677987 -410.6891137867829  -3051.609105163652 4422.979560175545 395.6160028796742  -1549.172622674469 -5694.518206609429 58.8470090045442  -3012.653534114239 394.2311653453929 691.7291024981748  -4409.306877186971 -561.0811379246777 584.9262731820668  -2110.478022212507 -3971.331980204264 -560.8360860625593  -2096.848873905759 -5012.795090903855 -366.5593950655421  -1837.750696387326 -2541.56870967295 -683.6825487610859  3115.324918980369 5076.354881596643 -25.66013864036361  -4192.560917894549 -4189.278713910325 159.7019608712405  -5056.151441049562 -2834.23976108805 278.0481151313327  1109.236815135318 5157.330794037871 406.552321094809  -402.5356984005239 4680.283804174498 525.1187098357411  -139.8725629455482 3559.562784405916 653.2512238218342  -1713.99229540705 1516.376748505312 724.0222568212562  -2824.819527683973 -3250.189644616451 589.8727532506047  1475.844329834033 3958.972180385545 -592.8015598075212  -3448.17754536476 -4720.248612806722 -196.8511931737311  -465.021022194321 3061.205655043588 -682.4723871735395  -1040.195089554663 1320.576872508931 -741.6781072782882  -685.4746569908291 5532.770361598409 302.2725596814681  -1340.034973612086 -936.4118147923311 741.4886805199212  -450.2705522558285 -4891.960999891387 -488.3701884059133  -2875.506790202683 -1491.007669273715 681.7186740595309  -4375.561690157492 -2369.839731766268 503.6984017085825  -5411.814305092706 -1130.946521205244 391.3120265940035  -5881.826324251459 -1459.177247176129 127.6896517346364  -6107.832930463875 -187.9651938304677 -79.44030970633827  -2414.969722799414 2594.958437800354 -658.7073577149705  -3632.5437041316 2846.165233115601 -555.9781075357217  -527.5811336150742 -5573.73386109199 -292.0800615985472  -211.2292845759922 4428.899268648874 -565.3616734664919  2455.153211866223 5194.034494484631 234.3206789492336  5326.019816372148 -1541.826202075345 383.3244296023947  314.5322727872724 -1724.769217062632 -737.4234570771806  969.9562712841969 -5757.381206137613 -139.6321384086894  -1902.118345074355 3837.756464424552 587.430030287674  5869.866573012975 1482.45970869465 -137.4611851518372  3931.282516172413 4281.385848653101 232.1692236436958  4626.155132734302 3870.159932090813 -10.34108143150177  -4697.652649890306 -3510.809267049806 -226.8284928208998  -2033.540291528714 5546.966919368442 70.73397497268405  -3414.775206720649 4787.182413975192 165.3799311437648  -341.7021381578357 -3689.216128882092 -639.7370431520758  -1478.061854501641 -679.0019290407438 -743.5097933141001  -3095.012736498998 -1081.608845676257 -678.9145891804374  1419.01855365977 5730.759878730871 -46.94615151962014  163.2542705379336 -5861.525837536986 100.9529571309842  3424.353038081954 -3766.623797869839 470.1669348372898  5879.035743359321 1501.742552966451 121.9609626228063  2754.66288777644 -1622.308033660499 684.6077896263918  -5192.649685201321 -3140.53453855734 22.27848540236623  -1122.101578631054 -3967.532519233364 602.553522918855  3049.121668971574 2908.038676744276 -600.7484372245806  -5305.035424338211 476.7295714759195 443.9469915648911  1396.424176553851 -4456.786367776121 -533.4076549525063  1543.485178240679 2905.621859259318 672.8441083571472  876.271816539944 5712.350606190855 189.2078789316701  -3848.652103969711 3727.521805701228 -411.0553002982201  5146.040701884235 -2848.741356756638 -234.3259780618121  -96.90663180533741 1584.273715260307 740.333760784588  4683.731090142579 -2788.91025641867 398.2504061603208  -5955.606989655271 1407.399592727383 -20.89725023629386  -3174.018692077241 -5048.925446725887 7.948099650333916  -1941.182888596933 -5514.15483932171 -150.61116032993  5506.923829651668 2601.587608070725 -6.794526646342165  -1404.546486995925 2980.719566144264 672.9341535759864  1751.163178129251 2705.95665691964 -678.9642803969532  -2134.259507159602 448.5333838100931 -728.2868748841471  -2252.524865686413 5179.302230920813 283.9640690610137  5234.335565401807 -2651.078864004875 246.7219152662521  -422.3304007067275 -5857.331544369461 -90.91799799308959  -4011.29141236465 1564.031975176865 -597.3421258999614  -2762.517583348497 1339.237997694975 -691.61175819904  -1733.319684589848 4791.683079057688 454.6576018400393  -4318.205962349965 -4179.15151735574 -50.56989466585932  0.0002546673210264892 0.2178894661087512 -0.09609092074349039  -2015.876526656313 -2376.206106485804 21.36897255764926  3046.208192658806 925.9209638427586 -3.666211460375715  -1215.301682712755 2501.552267662837 173.0509251581767  2273.288573616898 -1773.945481215602 157.4053081152568  -1490.085385476266 261.3427507192384 -341.0222478194551  -3133.271741704797 471.9275904780345 -0.05852193086646304  600.9456602604362 2827.905552313156 -150.8888191636797  2122.600478859835 -1396.647119939459 -233.3099275469184  -1655.967963002237 -265.2018736126916 332.0093148955067  1583.4169065118 2105.175623385635 272.6258743242931  -584.8042929386786 -2404.972390915444 -295.3010915693809  518.6808764472549 -3456.283885287612 1.383964881049497  1264.393982158441 924.7173612508335 -380.39240
[...]
<PointData  Vectors="Self-Gravity"> 
<DataArray  type="Float64"  Name="Self-Gravity"  NumberOfComponents="3" format="ascii">-4.6271489292051938e-06 -1.4585753153889480e-06 -2.9435878305082773e-04  -3.0293350343430824e-06 -5.9555557493036051e-07 2.9267261454939136e-04  -1.1051027993879135e-05 7.3436302589935241e-07 2.7553681640932084e-04  -2.4827342783013262e-05 1.9872103128024400e-06 2.4839765016077930e-04  -2.7987609263960187e-05 1.6679065990396564e-07 1.2996254533848413e-04  -4.0288820212530298e-05 3.0987783828498278e-06 8.9697618646376808e-05  -4.7297769925366651e-05 -1.0582220845327100e-06 1.7506730384458245e-05  -4.4857998981441021e-05 -2.6789297268638122e-06 -7.7360106693995101e-05  -2.8805016668897971e-05 6.4042719407085569e-07 -1.4226194364574824e-04  -2.5281637691337731e-05 8.4517285447368165e-07 -2.4354845157608827e-04  -1.2669486474801701e-05 3.7324082039155772e-06 -2.6361828938764251e-04  -1.2295547933084494e-05 1.1110683876410183e-05 1.9434456964760049e-04  -1.6036772096050021e-05 -1.0906791073816396e-05 -2.5913196449528259e-04  -5.2231391284607012e-05 1.5771639617793143e-05 4.0325561646991791e-05  -2.6831488496767364e-05 1.2738420762276458e-05 -2.0554292434537614e-04  -3.3114245184598381e-05 -1.1461447644794917e-05 -1.2547378601486720e-04  -3.3755711871582553e-05 -1.2405237238277550e-05 1.3316120484230742e-04  -1.5417521370864719e-05 -1.0199450954289056e-05 2.3467990339231704e-04  -5.3047259307953674e-06 9.5875263041573497e-06 -2.2640924865342528e-04  -2.9430315259475336e-05 1.4784679631375135e-05 2.1064244108880256e-04  -2.0135638086907848e-05 2.4672001177515083e-05 2.0721513219127869e-04  -3.3491170993784489e-05 2.9156754937015499e-05 1.4662775938125292e-04  -2.0494122347544911e-05 3.4532503764433672e-05 1.1485203775443176e-04  -3.4176511782766386e-05 3.7820099753306046e-05 5.7627849605087742e-05  -1.7857935147568647e-05 4.1031186225155231e-05 5.6942946323446543e-05  -3.1813384803041822e-05 4.5696392220811077e-05 -3.1297288662930360e-05  -1.7982352913903869e-05 4.9209645417095727e-05 -3.1723193241977705e-05  -1.4220946245986180e-05 2.8917716373957755e-05 -7.3684794942818611e-05  -6.3327320491532300e-06 4.2578128783805470e-05 -1.0680392099672624e-04  -1.0782160471028634e-05 2.9993763970807835e-05 -1.3555518730894604e-04  1.4070265708609161e-06 3.8628809131305309e-05 -1.6560122359615299e-04  -3.3448849209475874e-05 3.6330734871201244e-05 -9.1396101146807798e-05  -3.3873896715545722e-05 -1.5267447669949296e-05 -2.2058981463272696e-04  -2.9729992404840684e-05 -2.6150975946196218e-05 -1.3667889211158089e-04  -3.4342467522435470e-05 -2.0760850993953034e-05 -7.9770848610531879e-05  -3.4984178357284626e-06 2.6373128551427414e-05 -2.4338101472518999e-04  -1.6912196704424196e-05 2.4392992771513126e-05 -2.3275703627658077e-04  -2.4471512843829889e-05 -2.6015902465556140e-05 -2.2068489168834674e-04  -2.3542438341264967e-05 -3.6622104546631365e-05 -1.3610138348118091e-04  -5.4888902464448224e-05 1.2707688471634980e-05 -5.5766578210632437e-05  -4.4760474193773412e-05 3.1263688720782521e-05 -1.1902228795617247e-05  -3.9619849296144501e-05 1.1807032250095891e-05 1.4065830020312592e-04  -4.2203216437055529e-06 -1.3621655300497900e-05 2.9506649322354927e-04  -3.0814989042049316e-05 -1.2685650968022210e-05 2.1541196444469388e-04  -2.9677204094530465e-05 -2.4562987811486318e-05 1.4134229084441737e-04  -8.9659981072014941e-06 3.3619551508754414e-05 1.0802190359823188e-04  5.1202022397286058e-06 5.0923874585528883e-05 -1.1938362640134814e-04  -8.4257427538082973e-06 2.2619987634843206e-05 2.2224222765740984e-04  -3.9077404480530950e-05 -2.4314627927708126e-05 8.1298540670217425e-05  -3.2397946951186730e-05 -3.6318062545400655e-05 8.5763781708353523e-05  -1.9398219514087273e-05 -3.5633317018493409e-05 1.5641858336158310e-04  -2.1187722889862725e-05 -4.4911419452675241e-05 9.5783303791016690e-05  -6.1511276300740433e-06 -4.2947414283086956e-05 1.7847996005212279e-04  -2.3710762704749281e-06 -4.8954699884763987e-05 9.4970632971597588e-05  8.0400771014255021e-06 -4.3435947356891129e-05 1.3932788591503121e-04  1.2165360535818805e-05 -4.7359573969113325e-05 5.3380927655015941e-05  1.9310007538477288e-05 -4.1133854767142491e-05 1.1753906419484051e-04  2.6819541865087639e-06 -4.9191266109442327e-05 -1.2268518663041356e-05  1.4831781943784393e-05 3.7387860888487708e-05 -1.5459750739512076e-04  1.4368329418353068e-05 3.4420713546636585e-05 -6.8264967356004432e-05  2.6959523927977961e-05 -4.4472826287167801e-05 3.1708708859647631e-05  3.5530118615137007e-05 -3.3989949157343633e-05 8.3942977387327150e-05  3.0811760479587689e-05 -2.8042489052235253e-05 -1.6203855297490517e-05  4.5504771093620531e-05 -2.5830539011476981e-05 4.6867924450585293e-05  4.1356878443091558e-05 -2.0112521937350016e-05 -5.2954717009701234e-05  2.7772744441176609e-05 -1.3093790373673747e-05 1.0953417352213928e-04  3.6596460330390058e-05 -2.7131341984019707e-05 -1.0116890379879533e-04  3.9670848249376140e-05 -6.5019250283296196e-06 8.6765349454867021e-05  2.8886504618398825e-05 -1.1702331989782993e-05 -1.0843474485002640e-04  3.5732445070174457e-05 -2.7481209686543451e-06 1.5303312665765413e-04  4.0465534802848646e-05 5.1711410997373689e-06 1.1213660507817673e-04  3.1843023684926219e-05 -2.9012106022213130e-05 -1.9470316514637000e-04  8.2531736767711886e-06 1.9317838120193020e-05 -2.6011221779787740e-04  2.6096944681963080e-05 3.3029025914044895e-05 -1.3384630197337092e-04  3.6088061251492760e-05 9.8161538693453069e-06 2.1534343764069766e-04  3.4719804360271570e-05 1.8530623653800474e-05 1.5551123211203337e-04  4.9407318926889011e-05 -2.5622189859701682e-06 -7.7143597970451546e-05  1.2978676914249859e-05 -2.5111345233439947e-05 1.5473125025400479e-04  2.8500164240096903e-05 -1.1114475643975096e-05 -1.7311708900121447e-04  -9.8406923646776284e-06 -2.9403467027302396e-05 -2.0145482055214254e-04  4.7877326161928340e-05 1.8215022093881647e-05 4.7272722581449913e-05  2.6949030335150155e-05 -1.6666982460959113e-06 2.4289754667350863e-04  2.0279113048462898e-05 -1.5340024131591099e-05 -2.3555269070960557e-04  1.6184378179574485e-05 1.4697429353004010e-05 1.6424479124053245e-04  2.3456381164078308e-05 2.8420319520884112e-05 1.5245720324986013e-04  2.7200478268568399e-05 -3.7613968292309669e-05 -1.3752718988584693e-04  1.2958431555782390e-05 4.4888903215996537e-05 -2.5364754189779913e-05  2.2515480886541071e-05 -3.2433822636168597e-06 -2.6597557271427433e-04  3.3194798875337140e-05 3.5043570838132339e-06 -2.1140963220658257e-04  1.2808202459505134e-05 3.0380954032216136e-05 1.8922444906821704e-04  1.5216039258355969e-05 3.8530535311767954e-05 1.1599232030662891e-04  1.0613793079849304e-05 1.8446406785341274e-05 2.6570535192130338e-04  -2.5638949416909837e-05 -4.2584228020262337e-05 -9.5588673408024009e-06  3.2056165992908058e-05 3.3838472084725001e-05 -6.8419828668631839e-05  3.3863977817032331e-05 1.8672891587905454e-05 -9.0272408813384748e-05  -9.5360922624268412e-06 -4.1167196872269010e-05 -1.4893473231175966e-04  1.4514703971234805e-06 -3.7871264550898343e-05 -1.9102329555352872e-04  4.4101472204949714e-07 -2.0011730729376041e-05 -2.0621017253181733e-04  1.1003765490512115e-05 -1.0581708883138607e-05 -2.6154123751666726e-04  1.9464984107554079e-05 2.2738595222298534e-05 -2.0534477685477269e-04  -1.0939296175268072e-05 -2.9391119621453571e-05 2.2009803327840467e-04  2.7160089131939396e-05 3.7314480736545199e-05 8.6144431725336911e-05  4.1277898678187703e-06 -2.0926405653194957e-05 2.2014401477175454e-04  7.7063683236266782e-06 -1.4250145459667507e-05 3.0225665337310544e-04  5.6377854255280730e-06 -4.9624784929784748e-05 -1.0415158170667901e-04  7.7927869345246467e-06 2.6480098148032618e-06 -2.9734848987255681e-04  3.7689832847487866e-06 4.0014392734317120e-05 1.7660071350687314e-04  1.8741187143437691e-05 8.0418873864216647e-06 -2.2505042572255060e-04  3.2187743516632521e-05 1.5735633717615548e-05 -1.9694733268752764e-04  3.3727861332994828e-05 7.9909571401246038e-06 -1.0937520004470696e-04  3.4678316972332600e-05 1.0998761306570570e-05 -4.4616396180911930e-05  4.7333610180738031e-05 3.3107280907741474e-06 3.4774376427496029e-05  1.6173358917637892e-05 -1.8094589473400224e-05 2.4138822928457336e-04  2.6249943274364975e-05 -2.6342746731275877e-05 1.9177849550689951e-04  1.9699322000695934e-06 4.8576344673194070e-05 1.2246359425822819e-04  2.9508514026848182e-06 -2.6016894615517818e-05 1.6085824874115124e-04  -2.0321812860165368e-05 -4.6905483710477596e-05 -7.7663145675714240e-05  -3.9193074726184864e-05 1.1569752217337122e-05 -1.0978591323258697e-04  -1.1431389201349444e-07 1.1060053597555543e-05 2.6036965932802256e-04  -6.7038202835190077e-06 5.1132443484835014e-05 5.4957723306027231e-05  1.4740998602852945e-05 -2.6481107167204916e-05 -2.1023436060557915e-04  -5.0763577812258416e-05 -1.2892329247336259e-05 5.7728775173508072e-05  -3.4040518313305408e-05 -3.8862384813311311e-05 -8.4017496263398707e-05  -3.7372581528443293e-05 -3.6330480595637227e-05 -2.3671085552897070e-05  3.9482678326273737e-05 2.9954043607501055e-05 7.5796922131129570e-05  2.0840285522844470e-05 -5.5265941764050960e-05 -2.2538472621611813e-05  2.7700157435868503e-05 -3.7253864483577290e-05 -5.2855007456086280e-05  3.6868651332872846e-06 2.7553623689469877e-05 2.3144245636189657e-04  8.3472967062910619e-06 6.1357197467490200e-06 3.0430357674539007e-04  1.6000676581509597e-05 8.7821618451907882e-06 2.0602351714486925e-04  -1.2253394831886184e-05 -5.3015583341719221e-05 1.9084406912798533e-05  -4.8058236844860942e-06 4.9727410604112932e-05 -4.0770214788110662e-05  -2.6610089971908529e-05 2.9329689146421329e-05 -1.6224485649340861e-04  -5.1063013967794940e-05 -1.4322823507915845e-05 -4.1303530419622091e-05  -1.6696481403975705e-05 1.0351464565146658e-05 -2.3527095314171507e-04  4.3991872421790923e-05 2.7690620131525711e-05 -6.1874688116627958e-06  5.0549357647497430e-06 2.3254861612802608e-05 -1.8190708411478735e-04  -2.1317517286669655e-05 -2.2913284931660029e-05 2.1755021527489850e-04  4.1147965750020886e-05 -2.2952586489017155e-06 -1.5897998953100933e-04  -1.0539911751238612e-05 3.3809849402696231e-05 1.7797479075976855e-04  -9.0092344739550289e-06 -1.8806696083059170e-05 -2.4360552305814577e-04  -6.9074093656652073e-06 -4.7992532193510165e-05 -6.7854687845023592e-05  2.9432480491650298e-05 -3.2564651624695326e-05 1.7041930053553330e-04  -4.5907350992061234e-05 2.8921383898352940e-05 6.6388105273998193e-05  -2.5355979756030895e-06 -1.1853028523747434e-05 -2.7396548712651494e-04  -3.4515771189949632e-05 2.0698038689018851e-05 -1.4997474412201554e-04  4.7931885345267238e-05 -1.2597446055676292e-05 1.1365784792571302e-05  2.4831501283348313e-05 4.5229145068353411e-05 -5.3072538585571877e-06  1.1742738337235518e-05 3.3523139536553973e-05 4.9798572486518850e-05  -4.1523606965600111e-05 -2.3114710627384011e-05 -1.4309818857430501e-05  8.4742296507487101e-06 -1.4559266563960308e-05 -2.4147923679120628e-04  -8.9001102516772331e-06 -2.2357383372732878e-05 2.5584245551539677e-04  1.9728832462803424e-05 8.3484561813360020e-07 2.8607169168446453e-04  1.9458017455181237e-05 -4.4179548445996631e-05 -8.2997397106137637e-05  -4.8179177449957303e-05 2.6455452888574987e-05 -8.9551478912088708e-05  4.4049922720230089e-06 4.7176834827276553e-05 1.1565502353429200e-05  3.2697001192006958e-05 -1.3674638927216119e-05 2.5540638658830457e-04  1.8497480086130659e-05 -8.3537429005655304e-06 2.7052192960156426e-04  1.5424025514896982e-05 -4.1844298119673819e-05 -1.5476684093996353e-04  3.8903649990013639e-05 4.1310125667134382e-05 1.0697340682897540e-05  1.1576387610214101e-06 5.3217806463063268e-06 -1.0210859838201284e-05  2.0272263816385396e-05 2.2801677024983551e-05 -1.8943943363542330e-05  -3.3241430640099517e-05 -7.7670330851430325e-06 -9.2124316523736086e-06  1.4486841545244397e-05 -2.5788684096408472e-05 -1.0535670464401409e-04  -2.2391670239685214e-05 1.7874582837297534e-05 -8.1080585362522468e-05  1.1110198617115510e-05 -4.4197006762455664e-06 1.8257497909739262e-04  2.9450136196930630e-05 -5.4158160838486439e-06 -1.0667376083381224e-05  -6.3901528448973305e-06 -3.1505571606427858e-05 1.0447203140206825e-04  -2.0343989037294729e-05 1.4936743265910969e-05 1.0311831817610901e-04  1.4925339456134321e-05 4.6129586500320986e-06 -1.7173668958557126e-04  -1.6580044820805647e-05 -2.3181897596685079e-05 -1.7393935781846742e-04  6.1269218721053610e-06 2.0365554992609831e-05 1.2543199167342771e-04  -4.7238262403548601e-06 2.9200384727103343e-05 7.6706303581850217e-06  -1.2318367121971530e-05 -1.0725235409748474e-05 2.2936003544941512e-04  5.3514625936115092e-06 2.1579083479846125e-05 -1.4523712031550993e-04  -8.1577184774699117e-06 7.0945512617236701e-06 -2.2136141051680273e-04  1.8317701830868471e-05 -2.3485871087489138e-05 6.8585613797225904e-05  2.9874209631174689e-05 1.4588781078318999e-05 8.1700310836516933e-05  -2.7621497567066428e-05 -3.0898430640172545e-07 -1.4636640246834296e-04  3.4437864411205999e-06 -1.6528961491183659e-05 -2.2912794374390310e-04  -7.6581632251718178e-06 -4.1498208878612630e-05 -8.7634808847726679e-05  -2.6174808454688086e-05 -2.4669996545395985e-05 1.3963453704486794e-04  -2.4220586811997284e-05 -3.3079091785940013e-05 -6.9496123384139657e-07  2.9939944359862745e-05 -1.2878659201654532e-05 -1.6012137383164424e-04  -4.3125789119031022e-05 1.3941560056902638e-05 1.7151146351146946e-05  5.5602801997037935e-06 -2.5150173311752609e-05 2.0277465599367824e-04  3.6791590190461810e-05 1.3866115935985390e-05 -9.8092873788412281e-05  -3.2573846725774715e-05 -3.7437288850814696e-06 1.3044845863614360e-04  -2.9271963078003487e-05 3.5235618857585508e-05 2.9913372069447199e-05  3.2701234200485866e-05 -1.1001101121019868e-05 1.3962143214458830e-04  -7.3330752356532744e-06 1.0011337526511175e-05 2.1033547880925800e-04  1.2592205940994415e-05 3.8961057445494286e-05 8.6966546821022741e-05  1.2122908682003408e-05 4.2625514447922629e-05 -8.5201678084220717e-05  -1.3324422537228991e-05 3.5742033246289271e-05 -1.1940764599044152e-04  3.0967015353966088e-05 -3.2739871315768830e-05 -2.7853417150049654e-05  -1.1365287557455710e-05 3.3654995428417659e-05 1.5226045436797958e-04  1.0317151394935418e-05 -4.3009820444281030e-05 2.3520065225625474e-05  1.8247452300992554e-05 1.3872974729145578e-05 2.1914875633863862e-04  -3.5550213020029151e-05 -2.1828499096204105e-05 -1.0736613446600229e-04  -5.1446248069751410e-06 -1.5930947822140040e-05 -8.5662524030032049e-05  -1.1902765117866489e-05 -7.8849256937783712e-06 1.1087295641102453e-04  </DataArray> 
</PointData> 
</Piece>
</UnstructuredGrid>
</VTKFile>